------------------------------------------------------------
          Invoking FHI-aims ...

          When using FHI-aims, please cite the following reference:

            Volker Blum, Ralf Gehrke, Felix Hanke, Paula Havu,
            Ville Havu, Xinguo Ren, Karsten Reuter, and Matthias Scheffler,
            'Ab Initio Molecular Simulations with Numeric Atom-Centered Orbitals',
            Computer Physics Communications 180, 2175-2196 (2009)

          In addition, many other developments in FHI-aims are likely important for
          your particular application. If so, please cite them. A partial list of references
          is written at the end of this file. Thank you for giving credit to the authors
          of these developments.

          For general information about FHI-aims please find us at

            https://fhi-aims.org

          Online tutorials can be found at

            https://fhi-aims-club.gitlab.io/tutorials/tutorials-overview/

          For any questions about FHI-aims, please visit our slack channel at

            https://fhi-aims.slack.com

          and our main development and support site at

            https://aims-git.rz-berlin.mpg.de .

          The latter site, in particular, has a wiki to collect information, as well
          as an issue tracker to log discussions, suggest improvements, and report issues
          or bugs. https://aims-git.rz-berlin.mpg.de is also the main development site
          of the project and all new and updated code versions can be obtained there.
          Please send an email to aims-coordinators@fhi-berlin.mpg.de and we will add
          you to these sites. They are for you and everyone is welcome there.

------------------------------------------------------------



  Date     :  20240724, Time     :  074424.330
  Time zero on CPU 1             :   0.195315000000000E+00  s.
  Internal wall clock time zero  :           491039064.330  s.

  FHI-aims created a unique identifier for this run for later identification
  aims_uuid : 931ED533-A8D5-46BF-AB7B-3EA11754F63E

  Build configuration of the current instance of FHI-aims
  -------------------------------------------------------
  FHI-aims version      : 230612
  Commit number         : 0c86b0d53
  CMake host system     : Linux-3.10.0-1160.80.1.el7.x86_64
  CMake version         : 3.24.2
  Fortran compiler      : /apps/compilers/intel/2018.2/compilers_and_libraries_2018/linux/mpi/intel64/bin/mpif90 (Intel) version 18.0.2.20180210
  Fortran compiler flags: -O3 -ip -fp-model precise
  C compiler            : /apps/compilers/intel/2018.2/compilers_and_libraries_2018/linux/bin/intel64/icc (Intel) version 18.0.2.20180210
  C compiler flags      : -O3 -ip -fp-model precise -std=gnu99
  HIP compiler          :
  HIP compiler flags    :
  HIP GPU arch          :
  ELPA2 kernel          : AVX2
  Using MPI
  Using ScaLAPACK
  Using LibXC
  Using i-PI
  Using RLSY
  Linking against: /apps/compilers/intel/2018.2/compilers_and_libraries_2018/linux/mkl/lib/intel64/libmkl_intel_lp64.so
                   /apps/compilers/intel/2018.2/compilers_and_libraries_2018/linux/mkl/lib/intel64/libmkl_intel_thread.so
                   /apps/compilers/intel/2018.2/compilers_and_libraries_2018/linux/mkl/lib/intel64/libmkl_core.so
                   /apps/compilers/intel/2018.2/compilers_and_libraries_2018/linux/mkl/lib/intel64/libmkl_blacs_intelmpi_lp64.so
                   /apps/compilers/intel/2018.2/compilers_and_libraries_2018/linux/mkl/lib/intel64/libmkl_scalapack_lp64.so
                   /usr/lib64/libpthread.so

  Using      200 parallel tasks.
  Task        0 on host ccs0052 reporting.
  Task        1 on host ccs0052 reporting.
  Task        2 on host ccs0052 reporting.
  Task        3 on host ccs0052 reporting.
  Task        4 on host ccs0052 reporting.
  Task        5 on host ccs0052 reporting.
  Task        6 on host ccs0052 reporting.
  Task        7 on host ccs0052 reporting.
  Task        8 on host ccs0052 reporting.
  Task        9 on host ccs0052 reporting.
  Task       10 on host ccs0052 reporting.
  Task       11 on host ccs0052 reporting.
  Task       12 on host ccs0052 reporting.
  Task       13 on host ccs0052 reporting.
  Task       14 on host ccs0052 reporting.
  Task       15 on host ccs0052 reporting.
  Task       16 on host ccs0052 reporting.
  Task       17 on host ccs0052 reporting.
  Task       18 on host ccs0052 reporting.
  Task       19 on host ccs0052 reporting.
  Task       20 on host ccs0052 reporting.
  Task       21 on host ccs0052 reporting.
  Task       22 on host ccs0052 reporting.
  Task       23 on host ccs0052 reporting.
  Task       24 on host ccs0052 reporting.
  Task       25 on host ccs0052 reporting.
  Task       26 on host ccs0052 reporting.
  Task       27 on host ccs0052 reporting.
  Task       28 on host ccs0052 reporting.
  Task       29 on host ccs0052 reporting.
  Task       30 on host ccs0052 reporting.
  Task       31 on host ccs0052 reporting.
  Task       32 on host ccs0052 reporting.
  Task       33 on host ccs0052 reporting.
  Task       34 on host ccs0052 reporting.
  Task       35 on host ccs0052 reporting.
  Task       36 on host ccs0052 reporting.
  Task       37 on host ccs0052 reporting.
  Task       38 on host ccs0052 reporting.
  Task       39 on host ccs0052 reporting.
  Task       40 on host ccs0055 reporting.
  Task       41 on host ccs0055 reporting.
  Task       42 on host ccs0055 reporting.
  Task       43 on host ccs0055 reporting.
  Task       44 on host ccs0055 reporting.
  Task       45 on host ccs0055 reporting.
  Task       46 on host ccs0055 reporting.
  Task       47 on host ccs0055 reporting.
  Task       48 on host ccs0055 reporting.
  Task       49 on host ccs0055 reporting.
  Task       50 on host ccs0055 reporting.
  Task       51 on host ccs0055 reporting.
  Task       52 on host ccs0055 reporting.
  Task       53 on host ccs0055 reporting.
  Task       54 on host ccs0055 reporting.
  Task       55 on host ccs0055 reporting.
  Task       56 on host ccs0055 reporting.
  Task       57 on host ccs0055 reporting.
  Task       58 on host ccs0055 reporting.
  Task       59 on host ccs0055 reporting.
  Task       60 on host ccs0055 reporting.
  Task       61 on host ccs0055 reporting.
  Task       62 on host ccs0055 reporting.
  Task       63 on host ccs0055 reporting.
  Task       64 on host ccs0055 reporting.
  Task       65 on host ccs0055 reporting.
  Task       66 on host ccs0055 reporting.
  Task       67 on host ccs0055 reporting.
  Task       68 on host ccs0055 reporting.
  Task       69 on host ccs0055 reporting.
  Task       70 on host ccs0055 reporting.
  Task       71 on host ccs0055 reporting.
  Task       72 on host ccs0055 reporting.
  Task       73 on host ccs0055 reporting.
  Task       74 on host ccs0055 reporting.
  Task       75 on host ccs0055 reporting.
  Task       76 on host ccs0055 reporting.
  Task       77 on host ccs0055 reporting.
  Task       78 on host ccs0055 reporting.
  Task       79 on host ccs0055 reporting.
  Task       80 on host ccs0068 reporting.
  Task       81 on host ccs0068 reporting.
  Task       82 on host ccs0068 reporting.
  Task       83 on host ccs0068 reporting.
  Task       84 on host ccs0068 reporting.
  Task       85 on host ccs0068 reporting.
  Task       86 on host ccs0068 reporting.
  Task       87 on host ccs0068 reporting.
  Task       88 on host ccs0068 reporting.
  Task       89 on host ccs0068 reporting.
  Task       90 on host ccs0068 reporting.
  Task       91 on host ccs0068 reporting.
  Task       92 on host ccs0068 reporting.
  Task       93 on host ccs0068 reporting.
  Task       94 on host ccs0068 reporting.
  Task       95 on host ccs0068 reporting.
  Task       96 on host ccs0068 reporting.
  Task       97 on host ccs0068 reporting.
  Task       98 on host ccs0068 reporting.
  Task       99 on host ccs0068 reporting.
  Task      100 on host ccs0068 reporting.
  Task      101 on host ccs0068 reporting.
  Task      102 on host ccs0068 reporting.
  Task      103 on host ccs0068 reporting.
  Task      104 on host ccs0068 reporting.
  Task      105 on host ccs0068 reporting.
  Task      106 on host ccs0068 reporting.
  Task      107 on host ccs0068 reporting.
  Task      108 on host ccs0068 reporting.
  Task      109 on host ccs0068 reporting.
  Task      110 on host ccs0068 reporting.
  Task      111 on host ccs0068 reporting.
  Task      112 on host ccs0068 reporting.
  Task      113 on host ccs0068 reporting.
  Task      114 on host ccs0068 reporting.
  Task      115 on host ccs0068 reporting.
  Task      116 on host ccs0068 reporting.
  Task      117 on host ccs0068 reporting.
  Task      118 on host ccs0068 reporting.
  Task      119 on host ccs0068 reporting.
  Task      120 on host ccs0091 reporting.
  Task      121 on host ccs0091 reporting.
  Task      122 on host ccs0091 reporting.
  Task      123 on host ccs0091 reporting.
  Task      124 on host ccs0091 reporting.
  Task      125 on host ccs0091 reporting.
  Task      126 on host ccs0091 reporting.
  Task      127 on host ccs0091 reporting.
  Task      128 on host ccs0091 reporting.
  Task      129 on host ccs0091 reporting.
  Task      130 on host ccs0091 reporting.
  Task      131 on host ccs0091 reporting.
  Task      132 on host ccs0091 reporting.
  Task      133 on host ccs0091 reporting.
  Task      134 on host ccs0091 reporting.
  Task      135 on host ccs0091 reporting.
  Task      136 on host ccs0091 reporting.
  Task      137 on host ccs0091 reporting.
  Task      138 on host ccs0091 reporting.
  Task      139 on host ccs0091 reporting.
  Task      140 on host ccs0091 reporting.
  Task      141 on host ccs0091 reporting.
  Task      142 on host ccs0091 reporting.
  Task      143 on host ccs0091 reporting.
  Task      144 on host ccs0091 reporting.
  Task      145 on host ccs0091 reporting.
  Task      146 on host ccs0091 reporting.
  Task      147 on host ccs0091 reporting.
  Task      148 on host ccs0091 reporting.
  Task      149 on host ccs0091 reporting.
  Task      150 on host ccs0091 reporting.
  Task      151 on host ccs0091 reporting.
  Task      152 on host ccs0091 reporting.
  Task      153 on host ccs0091 reporting.
  Task      154 on host ccs0091 reporting.
  Task      155 on host ccs0091 reporting.
  Task      156 on host ccs0091 reporting.
  Task      157 on host ccs0091 reporting.
  Task      158 on host ccs0091 reporting.
  Task      159 on host ccs0091 reporting.
  Task      160 on host ccs0095 reporting.
  Task      161 on host ccs0095 reporting.
  Task      162 on host ccs0095 reporting.
  Task      163 on host ccs0095 reporting.
  Task      164 on host ccs0095 reporting.
  Task      165 on host ccs0095 reporting.
  Task      166 on host ccs0095 reporting.
  Task      167 on host ccs0095 reporting.
  Task      168 on host ccs0095 reporting.
  Task      169 on host ccs0095 reporting.
  Task      170 on host ccs0095 reporting.
  Task      171 on host ccs0095 reporting.
  Task      172 on host ccs0095 reporting.
  Task      173 on host ccs0095 reporting.
  Task      174 on host ccs0095 reporting.
  Task      175 on host ccs0095 reporting.
  Task      176 on host ccs0095 reporting.
  Task      177 on host ccs0095 reporting.
  Task      178 on host ccs0095 reporting.
  Task      179 on host ccs0095 reporting.
  Task      180 on host ccs0095 reporting.
  Task      181 on host ccs0095 reporting.
  Task      182 on host ccs0095 reporting.
  Task      183 on host ccs0095 reporting.
  Task      184 on host ccs0095 reporting.
  Task      185 on host ccs0095 reporting.
  Task      186 on host ccs0095 reporting.
  Task      187 on host ccs0095 reporting.
  Task      188 on host ccs0095 reporting.
  Task      189 on host ccs0095 reporting.
  Task      190 on host ccs0095 reporting.
  Task      191 on host ccs0095 reporting.
  Task      192 on host ccs0095 reporting.
  Task      193 on host ccs0095 reporting.
  Task      194 on host ccs0095 reporting.
  Task      195 on host ccs0095 reporting.
  Task      196 on host ccs0095 reporting.
  Task      197 on host ccs0095 reporting.
  Task      198 on host ccs0095 reporting.
  Task      199 on host ccs0095 reporting.

  Obtaining array dimensions for all initial allocations:
  
  -----------------------------------------------------------------------
  Parsing control.in (first pass over file, find array dimensions only).
  The contents of control.in will be repeated verbatim below
  unless switched off by setting 'verbatim_writeout .false.' .
  in the first line of control.in .
  -----------------------------------------------------------------------
  
  #===============================================================================
  # FHI-aims file: ./control.in
  # Created using the Atomic Simulation Environment (ASE)
  # Wed Jul 24 07:44:23 2024
  #===============================================================================
  spin                               none
  relativistic                       atomic_zora scalar
  compute_forces                     .true.
  override_warning_libxc             true
  xc                                 libxc MGGA_X_MBEEF+GGA_C_PBE_SOL
  k_grid                             2 2 3
  occupation_type                    gaussian 0.1
  plus_u_petukhov_mixing             1
  plus_u_use_hydros                  True
  plus_u_matrix_control              True
  plus_u_matrix_release              0.001
  output                             dos -18 0 200 0.1
  output                             atom_proj_dos -18 0 200 0.1
  sc_accuracy_etot                   1e-06
  sc_accuracy_eev                    0.001
  sc_accuracy_rho                    1e-06
  sc_accuracy_forces                 0.0001
  #===============================================================================
  
  ################################################################################
  #
  #  FHI-aims code project
  #  VB, Fritz-Haber Institut, 2009
  #
  #  Suggested "light" defaults for Ti atom (to be pasted into control.in file)
  #  Be sure to double-check any results obtained with these settings for post-processing,
  #  e.g., with the "tight" defaults and larger basis sets.
  #
  ################################################################################
    species        Ti
  #     global species definitions
      nucleus             22
      mass                47.867
  #
      l_hartree           4
  #
      cut_pot             3.5          1.5  1.0
      basis_dep_cutoff    1e-4
  #
      radial_base         48 5.0
      radial_multiplier   1
      angular_grids       specified
        division   0.5171   50
        division   0.9824  110
        division   1.2917  194
        division   1.4940  302
  #      division   1.6934  434
  #      division   1.8425  590
  #      division   2.1901  770
  #      division   2.2896  974
  #      division   2.8244 1202
  #      outer_grid  974
        outer_grid  302
  ################################################################################
  #
  #  Definition of "minimal" basis
  #
  ################################################################################
  #     valence basis states
      valence      4  s   2.
      valence      3  p   6.
      valence      3  d   2.
  #     ion occupancy
      ion_occ      4  s   1.
      ion_occ      3  p   6.
      ion_occ      3  d   1.
  ################################################################################
  #
  #  Suggested additional basis functions. For production calculations,
  #  uncomment them one after another (the most important basis functions are
  #  listed first).
  #
  #  Constructed for dimers: 1.6 A, 1.85 A, 2.5 A, 3.25 A, 4.25 A
  #
  ################################################################################
  #  "First tier" - improvements: -396.25 meV to -19.41 meV
       hydro 4 f 8
       hydro 3 d 2.7
       ionic 4 p auto
  #     hydro 5 g 11.6
       ionic 4 s auto
  #  "Second tier" - improvements: -16.30 meV to -2.03 meV
  #     hydro 3 d 4.4
  #     hydro 6 h 16
  #     hydro 4 f 9.4
  #     hydro 4 p 4.5
  #     hydro 1 s 0.5
  #  "Third tier" - improvements: -6.28 meV to -0.37 meV
  #     hydro 4 d 6.4
  #     hydro 4 f 10
  #     hydro 5 g 12
  #     hydro 2 p 1.7
  #     hydro 6 h 16.4
  #     hydro 4 s 3.8
  #  Further basis functions: -0.45 meV and smaller improvements
  #     hydro 3 d 8.8
  #     hydro 5 p 18
  #     hydro 4 f 22.4
  #     hydro 5 f 7.2  # -0.16 meV
  #     hydro 3 d 2.1  # -0.11 meV
  #     hydro 5 g 7.4  # -0.09 meV
  plus_u 3 d 2.575
  hubbard_coefficient 0.752 -0.486 0 0
  ################################################################################
  #
  #  FHI-aims code project
  #  VB, Fritz-Haber Institut, 2009
  #
  #  Suggested "light" defaults for O atom (to be pasted into control.in file)
  #  Be sure to double-check any results obtained with these settings for post-processing,
  #  e.g., with the "tight" defaults and larger basis sets.
  #
  ################################################################################
    species        O
  #     global species definitions
      nucleus             8
      mass                15.9994
  #
      l_hartree           4
  #
      cut_pot             3.5  1.5  1.0
      basis_dep_cutoff    1e-4
  #
      radial_base         36 5.0
      radial_multiplier   1
       angular_grids specified
        division   0.2659   50
        division   0.4451  110
        division   0.6052  194
        division   0.7543  302
  #      division   0.8014  434
  #      division   0.8507  590
  #      division   0.8762  770
  #      division   0.9023  974
  #      division   1.2339 1202
  #      outer_grid 974
        outer_grid 302
  ################################################################################
  #
  #  Definition of "minimal" basis
  #
  ################################################################################
  #     valence basis states
      valence      2  s   2.
      valence      2  p   4.
  #     ion occupancy
      ion_occ      2  s   1.
      ion_occ      2  p   3.
  ################################################################################
  #
  #  Suggested additional basis functions. For production calculations,
  #  uncomment them one after another (the most important basis functions are
  #  listed first).
  #
  #  Constructed for dimers: 1.0 A, 1.208 A, 1.5 A, 2.0 A, 3.0 A
  #
  ################################################################################
  #  "First tier" - improvements: -699.05 meV to -159.38 meV
       hydro 2 p 1.8
       hydro 3 d 7.6
       hydro 3 s 6.4
  #  "Second tier" - improvements: -49.91 meV to -5.39 meV
  #     hydro 4 f 11.6
  #     hydro 3 p 6.2
  #     hydro 3 d 5.6
  #     hydro 5 g 17.6
  #     hydro 1 s 0.75
  #  "Third tier" - improvements: -2.83 meV to -0.50 meV
  #     ionic 2 p auto
  #     hydro 4 f 10.8
  #     hydro 4 d 4.7
  #     hydro 2 s 6.8
  #  "Fourth tier" - improvements: -0.40 meV to -0.12 meV
  #     hydro 3 p 5
  #     hydro 3 s 3.3
  #     hydro 5 g 15.6
  #     hydro 4 f 17.6
  #     hydro 4 d 14
  # Further basis functions - -0.08 meV and below
  #     hydro 3 s 2.1
  #     hydro 4 d 11.6
  #     hydro 3 p 16
  #     hydro 2 s 17.2################################################################################
  #
  #  FHI-aims code project
  #  VB, Fritz-Haber Institut, 2009
  #
  #  Suggested "light" defaults for W atom (to be pasted into control.in file)
  #  Be sure to double-check any results obtained with these settings for post-processing,
  #  e.g., with the "tight" defaults and larger basis sets.
  #
  ################################################################################
    species          W
  #     global species definitions
      nucleus        74
      mass           183.84
  #
      l_hartree      4
  #
      cut_pot        3.5  1.5  1.0
      basis_dep_cutoff    1e-4
  #
      radial_base    71  5.0
      radial_multiplier  1
      angular_grids specified
        division   0.3522   50
        division   0.9662  110
        division   1.2839  194
        division   1.5443  302
  #      division   1.7847  434
  #      division   2.0413  590
  #      division   2.1047  770
  #      division   2.1708  974
  #      division   2.7309 1202
  #      outer_grid  974
        outer_grid  302
  ################################################################################
  #
  #  Definition of "minimal" basis
  #
  ################################################################################
  #     valence basis states
      valence      6  s   2.
      valence      5  p   6.
      valence      5  d   4.
      valence      4  f  14.
  #     ion occupancy
      ion_occ      6  s   1.
      ion_occ      5  p   6.
      ion_occ      5  d   3.
      ion_occ      4  f  14.
  ################################################################################
  #
  #  Suggested additional basis functions. For production calculations,
  #  uncomment them one after another (the most important basis functions are
  #  listed first).
  #
  #  Constructed for dimers: 1.775, 1.99, 2.50, 3.25, 4.50 AA
  #
  ################################################################################
  #
  #  "First tier" - improvements: -603.77 meV to -28.99 meV
       hydro 4 f 7.8
       hydro 4 d 5.8
       ionic 6 p auto
  #     hydro 5 g 12.4
       ionic 6 s auto
  #  "Second tier" - improvements: -28.30 meV to -1.31 meV
  #     hydro 6 h 16.8
  #     ionic 5 d auto
  #     hydro 4 f 8.6
  #     hydro 5 g 16.8
  #     hydro 5 d 8.4
  #     hydro 3 p 3.3
  #     hydro 1 s 0.55
  #  "Third tier" - max. impr. -1.79 meV, min. impr. -0.26 meV
  #     hydro 5 f 10.8
  #     hydro 5 g 34.4
  #     hydro 6 h 20.8
  #     hydro 5 g 12.8
  #     hydro 2 p 1.6
  #     hydro 4 s 4.7
  #     hydro 6 d 18.4
  #  "Fourth tier" -0.46 max. impr. - meV, min. impr. -0.09 meV
  #     hydro 6 h 21.6
  #     hydro 5 f 22.4
  #     hydro 4 f 4
  #     hydro 5 p 9.6
  #     hydro 6 d 17.2
  #     hydro 3 p 5.2
  #     hydro 5 g 4.7
  #     hydro 6 s 7.6
  plus_u 5 d 0
  hubbard_coefficient 1 0 0 0
  
  -----------------------------------------------------------------------
  Completed first pass over input file control.in .
  -----------------------------------------------------------------------
  
  
  -----------------------------------------------------------------------
  Parsing geometry.in (first pass over file, find array dimensions only).
  The contents of geometry.in will be repeated verbatim below
  unless switched off by setting 'verbatim_writeout .false.' .
  in the first line of geometry.in .
  -----------------------------------------------------------------------
  
  #=======================================================
  # FHI-aims file: ./geometry.in
  # Created using the Atomic Simulation Environment (ASE)
  # Wed Jul 24 07:44:23 2024
  #=======================================================
  lattice_vector 13.7870999999999988 0.0000000000000000 0.0000000000000000
  lattice_vector 0.0000000000000000 13.7870999999999988 0.0000000000000000
  lattice_vector 0.0000000000000000 0.0000000000000000 8.8766999999999996
  atom_frac 0.1712769968311519 0.1693290436937300 0.1669368781265817 Ti
  atom_frac 0.0020873185998118 -0.0021939075048191 0.0036171277960995 Ti
  atom_frac 0.0642182327872420 0.2690519181955434 0.1671634333768365 O
  atom_frac 0.2690192930593869 0.0643798160321838 0.1665771472526076 O
  atom_frac 0.1011181133260279 0.1005799019605579 0.0002371630678899 O
  atom_frac 0.2296448121593741 0.2303040239013360 -0.0000580231148561 O
  atom_frac 0.1602311225581509 0.1691659176832454 0.4962448310919034 Ti
  atom_frac 0.0027392124060998 -0.0023341008601290 0.3319201363123295 Ti
  atom_frac 0.0634223445680182 0.2684267790259385 0.5003517039275805 O
  atom_frac 0.2684317279373570 0.0639752646475031 0.5002728312096556 O
  atom_frac 0.1007943217104091 0.1008682511486155 0.3333216458021901 O
  atom_frac 0.2298369799479194 0.2296560055827429 0.3339016705975192 O
  atom_frac 0.1664631864254608 0.1603062791042224 0.8356667883841130 Ti
  atom_frac -0.0009624466002064 0.0007686039992270 0.6656999934661740 Ti
  atom_frac 0.0636383442880971 0.2680755477153071 0.8332055529658489 O
  atom_frac 0.2679953257644360 0.0637532746902163 0.8333334137704251 O
  atom_frac 0.1001017929497442 0.1002485229967223 0.6670004080297980 O
  atom_frac 0.2283172822999520 0.2284867351773254 0.6666364546052498 O
  atom_frac 0.1699114090065732 0.5011911242267805 0.1639506127177725 Ti
  atom_frac 0.0074591286078944 0.3317086986517356 0.0013401370427551 Ti
  atom_frac 0.0655983750692622 0.6025271598087822 0.1663563341775896 O
  atom_frac 0.2672117757525535 0.3976095640634942 0.1675646073459575 O
  atom_frac 0.1015731323272392 0.4356932490381122 0.0003562376226089 O
  atom_frac 0.2319554532867754 0.5637891493008179 -0.0000360940107897 O
  atom_frac 0.1651944161475833 0.4907930008938532 0.5017447362252834 Ti
  atom_frac -0.0054511307267463 0.3390810238673074 0.3322965067469593 Ti
  atom_frac 0.0647312831405487 0.6017670772781807 0.5005367538255452 O
  atom_frac 0.2650130608191836 0.3949304732201205 0.4987156094798684 O
  atom_frac 0.1002629733768987 0.4360651989402375 0.3328774846154582 O
  atom_frac 0.2324815211482485 0.5640018263395052 0.3337718519182642 O
  atom_frac 0.1643415844442338 0.5052565292811935 0.8328637197584480 Ti
  atom_frac -0.0040239528555637 0.3298488648034071 0.6664383768290431 Ti
  atom_frac 0.0649854875349787 0.6021668901084771 0.8332817233568742 O
  atom_frac 0.2667477484542143 0.3962026692842787 0.8338771292006001 O
  atom_frac 0.1014594637423516 0.4351818852710254 0.6675339618963566 O
  atom_frac 0.2313448603367225 0.5644065280004388 0.6659802446949805 O
  atom_frac 0.1686982721660825 0.8256032349406225 0.1680040696064516 Ti
  atom_frac -0.0077586476312998 0.6688063748020857 0.0014673728121121 Ti
  atom_frac 0.0647772159148725 0.9348752830539931 0.1667205816194541 O
  atom_frac 0.2692415356514462 0.7299538652865430 0.1672350577779874 O
  atom_frac 0.1020479976404053 0.7687098495317169 0.0000155906096738 O
  atom_frac 0.2319017711485318 0.8966729954641527 0.0000028013657267 O
  atom_frac 0.1703981223385636 0.8382512157401641 0.4980965602824675 Ti
  atom_frac 0.0046552728840316 0.6617723320691835 0.3323806202596215 Ti
  atom_frac 0.0652795066680144 0.9350709431595120 0.5002370983815601 O
  atom_frac 0.2700016339402566 0.7308404417450062 0.4987522509780642 O
  atom_frac 0.1031916749954882 0.7679613744162344 0.3338365493079183 O
  atom_frac 0.2312873737044482 0.8976105001773935 0.3328955132199873 O
  atom_frac 0.1624133494685336 0.8340681092491795 0.8337787395441355 Ti
  atom_frac 0.0032362942615537 0.6689482887723318 0.6666571236309109 Ti
  atom_frac 0.0651254921563230 0.9349036354322765 0.8336314371030614 O
  atom_frac 0.2685634569175580 0.7306594303001868 0.8339179593349854 O
  atom_frac 0.1028313331371003 0.7682412536686022 0.6668939493489571 O
  atom_frac 0.2317031099192754 0.8975905943367719 0.6670312715953469 O
  atom_frac 0.4930852908830596 0.1687796248943707 0.1668483297451180 Ti
  atom_frac 0.3335107460785469 -0.0085378316171193 0.0015719965938217 Ti
  atom_frac 0.3967881330942843 0.2674248712252960 0.1677848137814091 O
  atom_frac 0.6023434074977223 0.0659530802210444 0.1671939763526835 O
  atom_frac 0.4357255437156692 0.1015702362155310 0.0004826715349634 O
  atom_frac 0.5638091221664344 0.2327080005055537 0.0001268479261659 O
  atom_frac 0.5082011069666776 0.1698564662489695 0.5004312899169734 Ti
  atom_frac 0.3345536430944530 0.0047818998955137 0.3323283599393719 Ti
  atom_frac 0.3968182967656158 0.2669499766338799 0.4998514531013039 O
  atom_frac 0.6023601348428462 0.0655748248750946 0.5003305424658361 O
  atom_frac 0.4357826581482701 0.1017775523547586 0.3332846981870567 O
  atom_frac 0.5646333940005572 0.2329353542101496 0.3336224657664680 O
  atom_frac 0.4966688986504715 0.1625522628803080 0.8323447987288317 Ti
  atom_frac 0.3321080835867676 0.0032313312675908 0.6644158613268056 Ti
  atom_frac 0.3959074280439102 0.2665819695479073 0.8346434906162982 O
  atom_frac 0.6015025317865866 0.0656203881682363 0.8337080946291839 O
  atom_frac 0.4352312139112827 0.1020684274754416 0.6668533308739646 O
  atom_frac 0.5649230921802585 0.2321119757427074 0.6669069552286111 O
  atom_frac 0.4999339198808268 0.5000470642924265 0.1540889037895055 Ti
  atom_frac 0.3313954994687076 0.3397913849547292 -0.0020324099031638 Ti
  atom_frac 0.3987028701195761 0.6013941530389297 0.1662476220793434 O
  atom_frac 0.6016651206826445 0.3982663684283372 0.1671584324186743 O
  atom_frac 0.4339616088567332 0.4336104388656672 0.0019864599325523 O
  atom_frac 0.5664853327920615 0.5659997696535328 0.0019618795587680 O
  atom_frac 0.5026473602803340 0.4974667879908770 0.5132066154030934 W
  atom_frac 0.3388906804825937 0.3360284950023727 0.3374243781883650 Ti
  atom_frac 0.4003538787402752 0.5992797015281073 0.5004361468739221 O
  atom_frac 0.5977846721852343 0.4025437416339623 0.5017979980658379 O
  atom_frac 0.4341757076351855 0.4350422651035870 0.3338323652419337 O
  atom_frac 0.5647520917802771 0.5660884977890719 0.3338661191012317 O
  atom_frac 0.5002800917403514 0.4996630603813091 0.8109162054503312 Ti
  atom_frac 0.3283486576449638 0.3233735456585087 0.6704967380931547 Ti
  atom_frac 0.3978756013331728 0.6026176280422481 0.8307690787224227 O
  atom_frac 0.6020891477163086 0.3976069357401664 0.8300211944890719 O
  atom_frac 0.4252060343155490 0.4297859819251414 0.6626763617243504 O
  atom_frac 0.5704532154079739 0.5745839410815683 0.6627768666212500 O
  atom_frac 0.5049522171425245 0.8316893443079912 0.1676385118682623 Ti
  atom_frac 0.3416333204795067 0.6683125352525934 -0.0022432377672172 Ti
  atom_frac 0.3975196766933796 0.9346206467735728 0.1672108749841237 O
  atom_frac 0.6028888637171669 0.7330857455690550 0.1673473191031538 O
  atom_frac 0.4358264291082758 0.7679858027976247 0.0002425725618045 O
  atom_frac 0.5640757238566946 0.8993096514438305 0.0006154653253897 O
  atom_frac 0.4918092491594691 0.8307751319077636 0.5003361395492754 Ti
  atom_frac 0.3309062472393251 0.6616286845837993 0.3340180301213116 Ti
  atom_frac 0.3975389581374940 0.9350368831194563 0.5003348216133076 O
  atom_frac 0.6033743860234911 0.7345645255681841 0.4993924701983379 O
  atom_frac 0.4357905928955995 0.7676781183978745 0.3332623614706806 O
  atom_frac 0.5639133018744440 0.8990993460772474 0.3330093173643268 O
  atom_frac 0.5041478040553269 0.8376713318205236 0.8322150086124032 Ti
  atom_frac 0.3271086855550246 0.6686128506381414 0.6703570776333927 Ti
  atom_frac 0.3984382740805035 0.9350928169367967 0.8335668499421217 O
  atom_frac 0.6041052871737882 0.7343931919962530 0.8354131219464431 O
  atom_frac 0.4352336737442078 0.7685864867548488 0.6671036670885412 O
  atom_frac 0.5646685268972524 0.8986696710588807 0.6669766244072386 O
  atom_frac 0.8390187097334910 0.1665966860621343 0.1678675409656455 Ti
  atom_frac 0.6652447230771646 0.0080543051844962 0.0020464153035385 Ti
  atom_frac 0.7312698109067401 0.2698178895001846 0.1660225153361293 O
  atom_frac 0.9356664394151619 0.0648694091298455 0.1667993940174031 O
  atom_frac 0.7685062250338126 0.1029761051574456 0.0000894518844714 O
  atom_frac 0.8983401732293596 0.2307971086391997 0.0000572774992553 O
  atom_frac 0.8315591674052712 0.1599847478615105 0.4980018125473027 Ti
  atom_frac 0.6643649390521044 -0.0038162035844551 0.3324349962970686 Ti
  atom_frac 0.7299596166341625 0.2691901852384478 0.4991984091354141 O
  atom_frac 0.9348393988926802 0.0647687868558653 0.5001667393551288 O
  atom_frac 0.7688622298097341 0.1023852407457150 0.3328287415201647 O
  atom_frac 0.8969293763882398 0.2317408760514125 0.3338195844146368 O
  atom_frac 0.8381468737457616 0.1640875295436148 0.8353407087733494 Ti
  atom_frac 0.6687650531971613 -0.0031735337901943 0.6643436427306897 Ti
  atom_frac 0.7316800716100746 0.2693352579059957 0.8346294031078658 O
  atom_frac 0.9350681063542041 0.0649967295152580 0.8334423370063289 O
  atom_frac 0.7682866395204311 0.1023897782319529 0.6671274787523910 O
  atom_frac 0.8970144906408063 0.2317503485011479 0.6669003170215551 O
  atom_frac 0.8287591257169636 0.4993489988843192 0.1650222791090867 Ti
  atom_frac 0.6573370535911314 0.3330104343904718 -0.0011463651612304 Ti
  atom_frac 0.7322934995659918 0.6027755070742926 0.1678742974484016 O
  atom_frac 0.9338819104847017 0.3976461329526462 0.1661905762617038 O
  atom_frac 0.7674782243061564 0.4367776885582999 -0.0002352667070126 O
  atom_frac 0.8978923260582630 0.5646981785073167 0.0002265453480198 O
  atom_frac 0.8333339580130846 0.5088645682361069 0.5011273407717932 Ti
  atom_frac 0.6739217760351676 0.3309205931602940 0.3265259586553975 Ti
  atom_frac 0.7335505050347561 0.6049452040356179 0.4996625301815658 O
  atom_frac 0.9348078171120286 0.3983635295702069 0.5006418381904671 O
  atom_frac 0.7673198387404536 0.4359079014690116 0.3341960225460901 O
  atom_frac 0.8989034442971467 0.5643280666535681 0.3332173285473555 O
  atom_frac 0.8362346042756824 0.4951060718728829 0.8337525092519735 Ti
  atom_frac 0.6754714806707738 0.3297266614984297 0.6728392907021012 Ti
  atom_frac 0.7324017985684755 0.6040691434830565 0.8331998362737482 O
  atom_frac 0.9345123666752417 0.3979757540253219 0.8333808392280299 O
  atom_frac 0.7681730189679878 0.4355486512206800 0.6660079830466999 O
  atom_frac 0.8980583327050217 0.5651372426438648 0.6672741115848420 O
  atom_frac 0.8280595301481444 0.8316267578553155 0.1673568094032565 Ti
  atom_frac 0.6680353157237248 0.6606754034029865 -0.0013654901278587 Ti
  atom_frac 0.7307767251623002 0.9359748663208250 0.1666245306192703 O
  atom_frac 0.9355729142344120 0.7311964656725942 0.1672475388651680 O
  atom_frac 0.7703467299708709 0.7699186936907588 -0.0000241495878195 O
  atom_frac 0.8989724117167595 0.8995016455540727 0.0002319482902640 O
  atom_frac 0.8397770462226701 0.8311953398043681 0.4961630010232871 Ti
  atom_frac 0.6596678549357082 0.6655221854141322 0.3376730826833211 Ti
  atom_frac 0.7314130274652217 0.9364540178963094 0.5001533874281403 O
  atom_frac 0.9362983089914267 0.7318403259243740 0.5004027907609845 O
  atom_frac 0.7700224208777579 0.7705798299878794 0.3339720162282867 O
  atom_frac 0.8993005694855069 0.8991014255252168 0.3332413585002050 O
  atom_frac 0.8333837172904522 0.8394984016704616 0.8360149021624572 Ti
  atom_frac 0.6718907262131533 0.6766638521611709 0.6710121688687893 Ti
  atom_frac 0.7318102518688221 0.9365086398317048 0.8333905411541281 O
  atom_frac 0.9360590099913206 0.7322009078296235 0.8331330770295415 O
  atom_frac 0.7711872141616136 0.7722007442225785 0.6666221476767056 O
  atom_frac 0.8999223498528376 0.8998874736762051 0.6670843525963177 O
  
  -----------------------------------------------------------------------
  Completed first pass over input file geometry.in .
  -----------------------------------------------------------------------
  

  Basic array size parameters:
  | Number of species                 :        3
  | Number of atoms                   :      162
  | Number of lattice vectors         :        3
  | Max. basis fn. angular momentum   :        3
  | Max. atomic/ionic basis occupied n:        6
  | Max. number of basis fn. types    :        3
  | Max. radial fns per species/type  :       14
  | Max. logarithmic grid size        :     1483
  | Max. radial integration grid size :       71
  | Max. angular integration grid size:      302
  | Max. angular grid division number :        8
  | Radial grid for Hartree potential :     1483
  | Number of spin channels           :        1
  | Max. number of (n,l) shells per species with '+U' treatment:        1

------------------------------------------------------------
          Reading file control.in.
------------------------------------------------------------
  Spin treatment: No spin polarisation.
  Scalar relativistic treatment of kinetic energy: on-site free-atom approximation to ZORA.
  Forces will be computed.
  XC: Using LibXC. Please refer to LibXC output for further details.
  Using libxc - Initializing
  Libxc version: 6.1.0


  ** PLEASE ** be careful using LibXC. Whilst most of the LDA, GGA and MGGA functionals,
  and hybrid variations therein, should be stable (though we always recommend testing!),
  there are several fancy functionals with e.g. range-separation, like HSE03/HSE06/LC-PBEh,
  and also MGGA functionals that depend on the laplacian of the density, like BR89,
  that are not fully implemented due to the infrastrucutre for these functionals being incomplete or non-generic.
  If you want to use these functionals please contact the development team and we will work on them with you!

  You have selected libxc functional MGGA_X_MBEEF (249)
    - Description: mBEEF exchange
    - Type: MGGA(Exchange)
    - Reference to Literature:
      [1] J. Wellendorff, K. T. Lundgaard, K. W. Jacobsen, and T. Bligaard.,  J. Chem. Phys. 140, 144107 (2014)

  You have selected libxc functional GGA_C_PBE_SOL (133)
    - Description: Perdew, Burke & Ernzerhof SOL
    - Type: GGA(Correlation)
    - Reference to Literature:
      [1] J. P. Perdew, A. Ruzsinszky, G. I. Csonka, O. A. Vydrov, G. E. Scuseria, L. A. Constantin, X. Zhou, and K. Burke.,  Phys. Rev. Lett. 100, 136406 (2008)

  Switching on meta-ggas
  Found k-point grid:         2         2         3
  Occupation type: Gaussian broadening, width =   0.100000E+00 eV.
  Fixing petukhov mixing factor to   1.000000000000
  hydrogenic basis funktions also used for DFT+U reference states
  Reading DFT+U occupation matrix, from file
  Reading DFT+U occupation matrix, from file
  DFT+U occupation matrix, is again calculated if total energy is converged within   0.001000000000
  Calculating density of states with
  | energy interval :-18.000000  0.000000
  | points & broadening :   200  0.100000
  Calculating atom-projected density of states with
  | energy interval :-18.000000  0.000000
  | points & broadening :   200  0.100000
  Convergence accuracy of total energy:  0.1000E-05
  Convergence accuracy of sum of eigenvalues:  0.1000E-02
  Convergence accuracy of self-consistent charge density:  0.1000E-05
  Convergence accuracy of forces:  0.1000E-03
 
  Reading configuration options for species Ti                  .
  | Found nuclear charge :  22.0000
  | Found atomic mass :    47.8670000000000      amu
  | Found l_max for Hartree potential  :   4
  | Found cutoff potl. onset [A], width [A], scale factor :    3.50000    1.50000    1.00000
  | Threshold for basis-dependent cutoff potential is   0.100000E-03
  | Found data for basic radial integration grid :    48 points, outermost radius =    5.000 A
  | Found multiplier for basic radial grid :   1
  | Found angular grid specification: user-specified.
  | Specified grid contains     5 separate shells.
  | Check grid settings after all constraints further below.
  | Found free-atom valence shell :  4 s   2.000
  | Found free-atom valence shell :  3 p   6.000
  | Found free-atom valence shell :  3 d   2.000
  | Found free-ion valence shell :  4 s   1.000
  | Found free-ion valence shell :  3 p   6.000
  | Found free-ion valence shell :  3 d   1.000
  | Found hydrogenic basis function :  4 f   8.000
  | Found hydrogenic basis function :  3 d   2.700
  | Found ionic basis function :  4 p , default cutoff radius.
  | Found ionic basis function :  4 s , default cutoff radius.
  | Found request for '+U' treatment for  3 d shell, U =     2.575000 eV.
  | Found coefficents for linear combination of hubbard projectors 
  Species Ti                  : Missing cutoff potential type.
  Defaulting to exp(1/x)/(1-x)^2 type cutoff potential.
  Species Ti: No 'logarithmic' tag. Using default grid for free atom:
  | Default logarithmic grid data [bohr] : 0.1000E-03 0.1000E+03 0.1012E+01
  | Will include ionic basis functions of  2.0-fold positive Ti                   ion.
  Species Ti: On-site basis accuracy parameter (for Gram-Schmidt orthonormalisation) not specified.
  Using default value basis_acc =  0.1000000E-03.
  Species Ti                  : Using default innermost maximum threshold i_radial=  2 for radial functions.
  Species Ti                  : Default cutoff onset for free atom density etc. : 0.35000000E+01 AA.
  Species Ti                  : Basic radial grid will be enhanced according to radial_multiplier =   1, to contain    48 grid points.
 
  Reading configuration options for species O                   .
  | Found nuclear charge :   8.0000
  | Found atomic mass :    15.9994000000000      amu
  | Found l_max for Hartree potential  :   4
  | Found cutoff potl. onset [A], width [A], scale factor :    3.50000    1.50000    1.00000
  | Threshold for basis-dependent cutoff potential is   0.100000E-03
  | Found data for basic radial integration grid :    36 points, outermost radius =    5.000 A
  | Found multiplier for basic radial grid :   1
  | Found angular grid specification: user-specified.
  | Specified grid contains     5 separate shells.
  | Check grid settings after all constraints further below.
  | Found free-atom valence shell :  2 s   2.000
  | Found free-atom valence shell :  2 p   4.000
  | Found free-ion valence shell :  2 s   1.000
  | Found free-ion valence shell :  2 p   3.000
  | Found hydrogenic basis function :  2 p   1.800
  | Found hydrogenic basis function :  3 d   7.600
  | Found hydrogenic basis function :  3 s   6.400
  Species O                   : Missing cutoff potential type.
  Defaulting to exp(1/x)/(1-x)^2 type cutoff potential.
  Species O : No 'logarithmic' tag. Using default grid for free atom:
  | Default logarithmic grid data [bohr] : 0.1000E-03 0.1000E+03 0.1012E+01
  Species O : On-site basis accuracy parameter (for Gram-Schmidt orthonormalisation) not specified.
  Using default value basis_acc =  0.1000000E-03.
  Species O                   : Using default innermost maximum threshold i_radial=  2 for radial functions.
  Species O                   : Default cutoff onset for free atom density etc. : 0.35000000E+01 AA.
  Species O                   : Basic radial grid will be enhanced according to radial_multiplier =   1, to contain    36 grid points.
 
  Reading configuration options for species W                   .
  | Found nuclear charge :  74.0000
  | Found atomic mass :    183.840000000000      amu
  | Found l_max for Hartree potential  :   4
  | Found cutoff potl. onset [A], width [A], scale factor :    3.50000    1.50000    1.00000
  | Threshold for basis-dependent cutoff potential is   0.100000E-03
  | Found data for basic radial integration grid :    71 points, outermost radius =    5.000 A
  | Found multiplier for basic radial grid :   1
  | Found angular grid specification: user-specified.
  | Specified grid contains     5 separate shells.
  | Check grid settings after all constraints further below.
  | Found free-atom valence shell :  6 s   2.000
  | Found free-atom valence shell :  5 p   6.000
  | Found free-atom valence shell :  5 d   4.000
  | Found free-atom valence shell :  4 f  14.000
  | Found free-ion valence shell :  6 s   1.000
  | Found free-ion valence shell :  5 p   6.000
  | Found free-ion valence shell :  5 d   3.000
  | Found free-ion valence shell :  4 f  14.000
  | Found hydrogenic basis function :  4 f   7.800
  | Found hydrogenic basis function :  4 d   5.800
  | Found ionic basis function :  6 p , default cutoff radius.
  | Found ionic basis function :  6 s , default cutoff radius.
  | Found request for '+U' treatment for  5 d shell, U =     0.000000 eV.
  | Found coefficents for linear combination of hubbard projectors 
  Species W                   : Missing cutoff potential type.
  Defaulting to exp(1/x)/(1-x)^2 type cutoff potential.
  Species W : No 'logarithmic' tag. Using default grid for free atom:
  | Default logarithmic grid data [bohr] : 0.1000E-03 0.1000E+03 0.1012E+01
  | Will include ionic basis functions of  2.0-fold positive W                    ion.
  Species W : On-site basis accuracy parameter (for Gram-Schmidt orthonormalisation) not specified.
  Using default value basis_acc =  0.1000000E-03.
  Species W                   : Using default innermost maximum threshold i_radial=  2 for radial functions.
  Species W                   : Default cutoff onset for free atom density etc. : 0.35000000E+01 AA.
  Species W                   : Basic radial grid will be enhanced according to radial_multiplier =   1, to contain    71 grid points.
 
  Finished reading input file 'control.in'.
 
------------------------------------------------------------


------------------------------------------------------------
          Reading geometry description geometry.in.
------------------------------------------------------------
  | The smallest distance between any two atoms is         1.83204119 AA.
  | The first atom of this pair is atom number                    123 .
  | The second atom of this pair is atom number                   140 .
  | Wigner-Seitz cell of the first atom image           0     0     0 .
  | (The Wigner-Seitz cell of the second atom is 0 0 0  by definition.)

  Symmetry information by spglib:
  | Precision set to  0.1E-04
  | Number of Operations  : 1
  | Space group           : 1
  | International         : P1 i    Sei
  | Schoenflies           : C1^1
  Input structure read successfully.
  The structure contains      162 atoms,  and a total of       2104.000 electrons.

  Input geometry:
  | Unit cell:
  |       13.78710000        0.00000000        0.00000000
  |        0.00000000       13.78710000        0.00000000
  |        0.00000000        0.00000000        8.87670000
  | Atomic structure:
  |       Atom                x [A]            y [A]            z [A]
  |    1: Species Ti            2.36141308        2.33455646        1.48184859
  |    2: Species Ti            0.02877807       -0.03024762        0.03210816
  |    3: Species O             0.88538320        3.70944570        1.48385965
  |    4: Species O             3.70899590        0.88761096        1.47865536
  |    5: Species O             1.39412554        1.38670517        0.00210523
  |    6: Species O             3.16613599        3.17522461       -0.00051505
  |    7: Species Ti            2.20912251        2.33230742        4.40501649
  |    8: Species Ti            0.03776580       -0.03218048        2.94635547
  |    9: Species O             0.87441021        3.70082685        4.44147197
  |   10: Species O             3.70089508        0.88203337        4.44077184
  |   11: Species O             1.38966139        1.39068067        2.95879625
  |   12: Species O             3.16878543        3.16629031        2.96394496
  |   13: Species Ti            2.29504460        2.21015870        7.41796338
  |   14: Species Ti           -0.01326935        0.01059682        5.90921913
  |   15: Species O             0.87738822        3.69598438        7.39611573
  |   16: Species O             3.69487836        0.87897277        7.39725071
  |   17: Species O             1.38011343        1.38213641        5.92076252
  |   18: Species O             3.14783320        3.15016947        5.91753182
  |   19: Species Ti            2.34258559        6.90997215        1.45534040
  |   20: Species Ti            0.10283975        4.57330100        0.01189599
  |   21: Species O             0.90441136        8.30710220        1.47669527
  |   22: Species O             3.68407547        5.48188282        1.48742075
  |   23: Species O             1.40039893        6.00694639        0.00316221
  |   24: Species O             3.19799303        7.77301738       -0.00032040
  |   25: Species Ti            2.27755193        6.76661218        4.45383750
  |   26: Species Ti           -0.07515528        4.67494398        2.94969640
  |   27: Species O             0.89245667        8.29662287        4.44311460
  |   28: Species O             3.65376157        5.44494593        4.42694885
  |   29: Species O             1.38233564        6.01207450        2.95485357
  |   30: Species O             3.20524598        7.77594958        2.96279260
  |   31: Species Ti            2.26579386        6.96602229        7.39308138
  |   32: Species Ti           -0.05547864        4.54765928        5.91577354
  |   33: Species O             0.89596142        8.30213513        7.39679187
  |   34: Species O             3.67767788        5.46248582        7.40207711
  |   35: Species O             1.39883177        5.99989617        5.92549872
  |   36: Species O             3.18957472        7.78152924        5.91170684
  |   37: Species Ti            2.32585995       11.38267436        1.49132172
  |   38: Species Ti           -0.10696925        9.22090037        0.01302543
  |   39: Species O             0.89308995       12.88921901        1.47992859
  |   40: Species O             3.71205998       10.06394694        1.48449544
  |   41: Species O             1.40694595       10.59827957        0.00013839
  |   42: Species O             3.19725291       12.36252026        0.00002487
  |   43: Species Ti            2.34929595       11.55705334        4.42145374
  |   44: Species Ti            0.06418271        9.12392132        2.95044305
  |   45: Species O             0.90001509       12.89191660        4.44045465
  |   46: Species O             3.72253953       10.07617025        4.42727411
  |   47: Species O             1.42271394       10.58796027        2.96336690
  |   48: Species O             3.18878215       12.37544573        2.95501360
  |   49: Species Ti            2.23920909       11.49938043        7.40120374
  |   50: Species Ti            0.04461911        9.22285695        5.91771529
  |   51: Species O             0.89789167       12.88960991        7.39989618
  |   52: Species O             3.70271124       10.07367463        7.40243955
  |   53: Species O             1.41774587       10.59181899        5.91981752
  |   54: Species O             3.19451395       12.37517128        5.92103649
  |   55: Species Ti            6.79821621        2.32698157        1.48106257
  |   56: Species Ti            4.59814601       -0.11771194        0.01395414
  |   57: Species O             5.47055767        3.68701344        1.48937546
  |   58: Species O             8.30456879        0.90930171        1.48413077
  |   59: Species O             6.00739164        1.40035900        0.00428453
  |   60: Species O             7.77329275        3.20836847        0.00112599
  |   61: Species Ti            7.00661948        2.34182809        4.44217843
  |   62: Species Ti            4.61252453        0.06592853        2.94997915
  |   63: Species O             5.47097354        3.68046602        4.43703139
  |   64: Species O             8.30479942        0.90408667        4.44128413
  |   65: Species O             6.00817909        1.40321729        2.95846828
  |   66: Species O             7.78465707        3.21150302        2.96146654
  |   67: Species Ti            6.84762377        2.24112430        7.38847507
  |   68: Species Ti            4.57880736        0.04455069        5.89782028
  |   69: Species O             5.45841530        3.67539227        7.40887987
  |   70: Species O             8.29297556        0.90471485        7.40057664
  |   71: Species O             6.00057627        1.40722762        5.91945696
  |   72: Species O             7.78865116        3.20015102        5.91993297
  |   73: Species Ti            6.89263895        6.89419888        1.36780097
  |   74: Species Ti            4.56898289        4.68473780       -0.01804109
  |   75: Species O             5.49695634        8.29148133        1.47573027
  |   76: Species O             8.29521719        5.49093825        1.48381526
  |   77: Species O             5.98307210        5.97823048        0.01763321
  |   78: Species O             7.81018993        7.80349542        0.01741502
  |   79: Species W             6.93004942        6.85862435        4.55558116
  |   80: Species Ti            4.67231970        4.63285846        2.99521498
  |   81: Species O             5.51971896        8.26232917        4.44222154
  |   82: Species O             8.24171705        5.54991082        4.45431029
  |   83: Species O             5.98602390        5.99797121        2.96332976
  |   84: Species O             7.78629356        7.80471873        2.96362938
  |   85: Species Ti            6.89741165        6.88890458        7.19825988
  |   86: Species Ti            4.52697578        4.45838341        5.95179840
  |   87: Species O             5.48555070        8.30834950        7.37448788
  |   88: Species O             8.30106329        5.48184658        7.36784914
  |   89: Species O             5.86235812        5.92550231        5.88237926
  |   90: Species O             7.86489553        7.92184625        5.88327141
  |   91: Species Ti            6.96182671       11.46658416        1.48807678
  |   92: Species Ti            4.71013275        9.21409175       -0.01991255
  |   93: Species O             5.48064353       12.88570832        1.48428077
  |   94: Species O             8.31208905       10.10712648        1.48549195
  |   95: Species O             6.00878256       10.58829706        0.00215324
  |   96: Species O             7.77696841       12.39887210        0.00546330
  |   97: Species Ti            6.78062330       11.45397982        4.44133381
  |   98: Species Ti            4.56223752        9.12194084        2.96497785
  |   99: Species O             5.48090937       12.89144701        4.44132211
  |  100: Species O             8.31878300       10.12751457        4.43295714
  |  101: Species O             6.00828848       10.58405499        2.95827000
  |  102: Species O             7.77472908       12.39597259        2.95602381
  |  103: Species Ti            6.95073619       11.54905842        7.38732297
  |  104: Species Ti            4.50988016        9.21823223        5.95055867
  |  105: Species O             5.49330833       12.89221818        7.39932286
  |  106: Species O             8.32886000       10.12515238        7.41571166
  |  107: Species O             6.00061018       10.59657875        5.92167912
  |  108: Species O             7.78514145       12.39004862        5.92055140
  |  109: Species Ti           11.56763485        2.29688517        1.49010980
  |  110: Species Ti            9.17179552        0.11104551        0.01816541
  |  111: Species O            10.08209001        3.72000622        1.47373206
  |  112: Species O            12.90012677        0.89436103        1.48062818
  |  113: Species O            10.59547218        1.41974186        0.00079404
  |  114: Species O            12.38550580        3.18202282        0.00050844
  |  115: Species Ti           11.46478940        2.20572572        4.42061269
  |  116: Species Ti            9.15966585       -0.05261438        2.95092573
  |  117: Species O            10.06402623        3.71135200        4.43123452
  |  118: Species O            12.88872428        0.89297374        4.43983010
  |  119: Species O            10.60038045        1.41159555        2.95442089
  |  120: Species O            12.36605501        3.19503463        2.96321630
  |  121: Species Ti           11.55561476        2.26229118        7.41506887
  |  122: Species Ti            9.22033066       -0.04375383        5.89717921
  |  123: Species O            10.08774632        3.71335213        7.40875482
  |  124: Species O            12.89187749        0.89611641        7.39821759
  |  125: Species O            10.59244473        1.41165811        5.92189049
  |  126: Species O            12.36722848        3.19516523        5.91987404
  |  127: Species Ti           11.42618494        6.88457458        1.46485326
  |  128: Species Ti            9.06277169        4.59124816       -0.01017594
  |  129: Species O            10.09620371        8.31052619        1.49016978
  |  130: Species O            12.87552329        5.48238700        1.47522389
  |  131: Species O            10.58129903        6.02189767       -0.00208839
  |  132: Species O            12.37933129        7.78555026        0.00201098
  |  133: Species Ti           11.48925861        7.01576669        4.44835707
  |  134: Species Ti            9.29142692        4.56243531        2.89847298
  |  135: Species O            10.11353417        8.34044002        4.43535438
  |  136: Species O            12.88828886        5.49227782        4.44404741
  |  137: Species O            10.57911535        6.00990583        2.96655783
  |  138: Species O            12.39327168        7.78044749        2.95787026
  |  139: Species Ti           11.52925011        6.82607692        7.40097090
  |  140: Species Ti            9.31279285        4.54597445        5.97259253
  |  141: Species O            10.09769684        8.32836169        7.39606499
  |  142: Species O            12.88421545        5.48693152        7.39767170
  |  143: Species O            10.59087823        6.00495281        5.91195306
  |  144: Species O            12.38162004        7.79160368        5.92319211
  |  145: Species Ti           11.41653955       11.46572127        1.48557619
  |  146: Species Ti            9.21026970        9.10879785       -0.01212105
  |  147: Species O            10.07529179       12.90437908        1.47907597
  |  148: Species O            12.89883733       10.08107879        1.48460623
  |  149: Species O            10.62084740       10.61494602       -0.00021437
  |  150: Species O            12.39422254       12.40151914        0.00205894
  |  151: Species Ti           11.57809011       11.45977327        4.40429011
  |  152: Species Ti            9.09490668        9.17562092        2.99742265
  |  153: Species O            10.08406455       12.91098519        4.43971157
  |  154: Species O            12.90883842       10.08995576        4.44192545
  |  155: Species O            10.61637612       10.62406117        2.96456940
  |  156: Species O            12.39874688       12.39600126        2.95808357
  |  157: Species Ti           11.48994465       11.57424841        7.42105348
  |  158: Species Ti            9.26342463        9.32923220        5.95637372
  |  159: Species O            10.08954112       12.91173827        7.39775782
  |  160: Species O            12.90553918       10.09492714        7.39547238
  |  161: Species O            10.63243524       10.64640888        5.91740482
  |  162: Species O            12.40731943       12.40683859        5.92150767

  Lattice parameters for 3D lattice (in Angstroms) :    13.787100   13.787100    8.876700
  Angle(s) between unit vectors (in degrees)       :    90.000000   90.000000   90.000000


  Quantities derived from the lattice vectors (in Angstrom^-1):
  | Reciprocal lattice vector 1:  0.455729  0.000000  0.000000
  | Reciprocal lattice vector 2:  0.000000  0.455729  0.000000
  | Reciprocal lattice vector 3:  0.000000  0.000000  0.707829
  | Unit cell volume                               :   0.168732E+04  Angstrom^3

  Fractional coordinates:
                         L1                L2                L3
       atom_frac         0.17127700        0.16932904        0.16693688  Ti
       atom_frac         0.00208732       -0.00219391        0.00361713  Ti
       atom_frac         0.06421823        0.26905192        0.16716343  O
       atom_frac         0.26901929        0.06437982        0.16657715  O
       atom_frac         0.10111811        0.10057990        0.00023716  O
       atom_frac         0.22964481        0.23030402       -0.00005802  O
       atom_frac         0.16023112        0.16916592        0.49624483  Ti
       atom_frac         0.00273921       -0.00233410        0.33192014  Ti
       atom_frac         0.06342234        0.26842678        0.50035170  O
       atom_frac         0.26843173        0.06397526        0.50027283  O
       atom_frac         0.10079432        0.10086825        0.33332165  O
       atom_frac         0.22983698        0.22965601        0.33390167  O
       atom_frac         0.16646319        0.16030628        0.83566679  Ti
       atom_frac        -0.00096245        0.00076860        0.66569999  Ti
       atom_frac         0.06363834        0.26807555        0.83320555  O
       atom_frac         0.26799533        0.06375327        0.83333341  O
       atom_frac         0.10010179        0.10024852        0.66700041  O
       atom_frac         0.22831728        0.22848674        0.66663645  O
       atom_frac         0.16991141        0.50119112        0.16395061  Ti
       atom_frac         0.00745913        0.33170870        0.00134014  Ti
       atom_frac         0.06559838        0.60252716        0.16635633  O
       atom_frac         0.26721178        0.39760956        0.16756461  O
       atom_frac         0.10157313        0.43569325        0.00035624  O
       atom_frac         0.23195545        0.56378915       -0.00003609  O
       atom_frac         0.16519442        0.49079300        0.50174474  Ti
       atom_frac        -0.00545113        0.33908102        0.33229651  Ti
       atom_frac         0.06473128        0.60176708        0.50053675  O
       atom_frac         0.26501306        0.39493047        0.49871561  O
       atom_frac         0.10026297        0.43606520        0.33287748  O
       atom_frac         0.23248152        0.56400183        0.33377185  O
       atom_frac         0.16434158        0.50525653        0.83286372  Ti
       atom_frac        -0.00402395        0.32984886        0.66643838  Ti
       atom_frac         0.06498549        0.60216689        0.83328172  O
       atom_frac         0.26674775        0.39620267        0.83387713  O
       atom_frac         0.10145946        0.43518189        0.66753396  O
       atom_frac         0.23134486        0.56440653        0.66598024  O
       atom_frac         0.16869827        0.82560323        0.16800407  Ti
       atom_frac        -0.00775865        0.66880637        0.00146737  Ti
       atom_frac         0.06477722        0.93487528        0.16672058  O
       atom_frac         0.26924154        0.72995387        0.16723506  O
       atom_frac         0.10204800        0.76870985        0.00001559  O
       atom_frac         0.23190177        0.89667300        0.00000280  O
       atom_frac         0.17039812        0.83825122        0.49809656  Ti
       atom_frac         0.00465527        0.66177233        0.33238062  Ti
       atom_frac         0.06527951        0.93507094        0.50023710  O
       atom_frac         0.27000163        0.73084044        0.49875225  O
       atom_frac         0.10319167        0.76796137        0.33383655  O
       atom_frac         0.23128737        0.89761050        0.33289551  O
       atom_frac         0.16241335        0.83406811        0.83377874  Ti
       atom_frac         0.00323629        0.66894829        0.66665712  Ti
       atom_frac         0.06512549        0.93490364        0.83363144  O
       atom_frac         0.26856346        0.73065943        0.83391796  O
       atom_frac         0.10283133        0.76824125        0.66689395  O
       atom_frac         0.23170311        0.89759059        0.66703127  O
       atom_frac         0.49308529        0.16877962        0.16684833  Ti
       atom_frac         0.33351075       -0.00853783        0.00157200  Ti
       atom_frac         0.39678813        0.26742487        0.16778481  O
       atom_frac         0.60234341        0.06595308        0.16719398  O
       atom_frac         0.43572554        0.10157024        0.00048267  O
       atom_frac         0.56380912        0.23270800        0.00012685  O
       atom_frac         0.50820111        0.16985647        0.50043129  Ti
       atom_frac         0.33455364        0.00478190        0.33232836  Ti
       atom_frac         0.39681830        0.26694998        0.49985145  O
       atom_frac         0.60236013        0.06557482        0.50033054  O
       atom_frac         0.43578266        0.10177755        0.33328470  O
       atom_frac         0.56463339        0.23293535        0.33362247  O
       atom_frac         0.49666890        0.16255226        0.83234480  Ti
       atom_frac         0.33210808        0.00323133        0.66441586  Ti
       atom_frac         0.39590743        0.26658197        0.83464349  O
       atom_frac         0.60150253        0.06562039        0.83370809  O
       atom_frac         0.43523121        0.10206843        0.66685333  O
       atom_frac         0.56492309        0.23211198        0.66690696  O
       atom_frac         0.49993392        0.50004706        0.15408890  Ti
       atom_frac         0.33139550        0.33979138       -0.00203241  Ti
       atom_frac         0.39870287        0.60139415        0.16624762  O
       atom_frac         0.60166512        0.39826637        0.16715843  O
       atom_frac         0.43396161        0.43361044        0.00198646  O
       atom_frac         0.56648533        0.56599977        0.00196188  O
       atom_frac         0.50264736        0.49746679        0.51320662  W
       atom_frac         0.33889068        0.33602850        0.33742438  Ti
       atom_frac         0.40035388        0.59927970        0.50043615  O
       atom_frac         0.59778467        0.40254374        0.50179800  O
       atom_frac         0.43417571        0.43504227        0.33383237  O
       atom_frac         0.56475209        0.56608850        0.33386612  O
       atom_frac         0.50028009        0.49966306        0.81091621  Ti
       atom_frac         0.32834866        0.32337355        0.67049674  Ti
       atom_frac         0.39787560        0.60261763        0.83076908  O
       atom_frac         0.60208915        0.39760694        0.83002119  O
       atom_frac         0.42520603        0.42978598        0.66267636  O
       atom_frac         0.57045322        0.57458394        0.66277687  O
       atom_frac         0.50495222        0.83168934        0.16763851  Ti
       atom_frac         0.34163332        0.66831254       -0.00224324  Ti
       atom_frac         0.39751968        0.93462065        0.16721087  O
       atom_frac         0.60288886        0.73308575        0.16734732  O
       atom_frac         0.43582643        0.76798580        0.00024257  O
       atom_frac         0.56407572        0.89930965        0.00061547  O
       atom_frac         0.49180925        0.83077513        0.50033614  Ti
       atom_frac         0.33090625        0.66162868        0.33401803  Ti
       atom_frac         0.39753896        0.93503688        0.50033482  O
       atom_frac         0.60337439        0.73456453        0.49939247  O
       atom_frac         0.43579059        0.76767812        0.33326236  O
       atom_frac         0.56391330        0.89909935        0.33300932  O
       atom_frac         0.50414780        0.83767133        0.83221501  Ti
       atom_frac         0.32710869        0.66861285        0.67035708  Ti
       atom_frac         0.39843827        0.93509282        0.83356685  O
       atom_frac         0.60410529        0.73439319        0.83541312  O
       atom_frac         0.43523367        0.76858649        0.66710367  O
       atom_frac         0.56466853        0.89866967        0.66697662  O
       atom_frac         0.83901871        0.16659669        0.16786754  Ti
       atom_frac         0.66524472        0.00805431        0.00204642  Ti
       atom_frac         0.73126981        0.26981789        0.16602252  O
       atom_frac         0.93566644        0.06486941        0.16679939  O
       atom_frac         0.76850623        0.10297611        0.00008945  O
       atom_frac         0.89834017        0.23079711        0.00005728  O
       atom_frac         0.83155917        0.15998475        0.49800181  Ti
       atom_frac         0.66436494       -0.00381620        0.33243500  Ti
       atom_frac         0.72995962        0.26919019        0.49919841  O
       atom_frac         0.93483940        0.06476879        0.50016674  O
       atom_frac         0.76886223        0.10238524        0.33282874  O
       atom_frac         0.89692938        0.23174088        0.33381958  O
       atom_frac         0.83814687        0.16408753        0.83534071  Ti
       atom_frac         0.66876505       -0.00317353        0.66434364  Ti
       atom_frac         0.73168007        0.26933526        0.83462940  O
       atom_frac         0.93506811        0.06499673        0.83344234  O
       atom_frac         0.76828664        0.10238978        0.66712748  O
       atom_frac         0.89701449        0.23175035        0.66690032  O
       atom_frac         0.82875913        0.49934900        0.16502228  Ti
       atom_frac         0.65733705        0.33301043       -0.00114637  Ti
       atom_frac         0.73229350        0.60277551        0.16787430  O
       atom_frac         0.93388191        0.39764613        0.16619058  O
       atom_frac         0.76747822        0.43677769       -0.00023527  O
       atom_frac         0.89789233        0.56469818        0.00022655  O
       atom_frac         0.83333396        0.50886457        0.50112734  Ti
       atom_frac         0.67392178        0.33092059        0.32652596  Ti
       atom_frac         0.73355051        0.60494520        0.49966253  O
       atom_frac         0.93480782        0.39836353        0.50064184  O
       atom_frac         0.76731984        0.43590790        0.33419602  O
       atom_frac         0.89890344        0.56432807        0.33321733  O
       atom_frac         0.83623460        0.49510607        0.83375251  Ti
       atom_frac         0.67547148        0.32972666        0.67283929  Ti
       atom_frac         0.73240180        0.60406914        0.83319984  O
       atom_frac         0.93451237        0.39797575        0.83338084  O
       atom_frac         0.76817302        0.43554865        0.66600798  O
       atom_frac         0.89805833        0.56513724        0.66727411  O
       atom_frac         0.82805953        0.83162676        0.16735681  Ti
       atom_frac         0.66803532        0.66067540       -0.00136549  Ti
       atom_frac         0.73077673        0.93597487        0.16662453  O
       atom_frac         0.93557291        0.73119647        0.16724754  O
       atom_frac         0.77034673        0.76991869       -0.00002415  O
       atom_frac         0.89897241        0.89950165        0.00023195  O
       atom_frac         0.83977705        0.83119534        0.49616300  Ti
       atom_frac         0.65966785        0.66552219        0.33767308  Ti
       atom_frac         0.73141303        0.93645402        0.50015339  O
       atom_frac         0.93629831        0.73184033        0.50040279  O
       atom_frac         0.77002242        0.77057983        0.33397202  O
       atom_frac         0.89930057        0.89910143        0.33324136  O
       atom_frac         0.83338372        0.83949840        0.83601490  Ti
       atom_frac         0.67189073        0.67666385        0.67101217  Ti
       atom_frac         0.73181025        0.93650864        0.83339054  O
       atom_frac         0.93605901        0.73220091        0.83313308  O
       atom_frac         0.77118721        0.77220074        0.66662215  O
       atom_frac         0.89992235        0.89988747        0.66708435  O

 
  Finished reading input file 'geometry.in'.
 

 
  Consistency checks for stacksize environment parameter are next.
 
  | Maximum stacksize for task 0: unlimited
  | Maximum stacksize for task 1: unlimited
  | Maximum stacksize for task 2: unlimited
  | Maximum stacksize for task 3: unlimited
  | Maximum stacksize for task 4: unlimited
  | Maximum stacksize for task 5: unlimited
  | Maximum stacksize for task 6: unlimited
  | Maximum stacksize for task 7: unlimited
  | Maximum stacksize for task 8: unlimited
  | Maximum stacksize for task 9: unlimited
  | Maximum stacksize for task 10: unlimited
  | Maximum stacksize for task 11: unlimited
  | Maximum stacksize for task 12: unlimited
  | Maximum stacksize for task 13: unlimited
  | Maximum stacksize for task 14: unlimited
  | Maximum stacksize for task 15: unlimited
  | Maximum stacksize for task 16: unlimited
  | Maximum stacksize for task 17: unlimited
  | Maximum stacksize for task 18: unlimited
  | Maximum stacksize for task 19: unlimited
  | Maximum stacksize for task 20: unlimited
  | Maximum stacksize for task 21: unlimited
  | Maximum stacksize for task 22: unlimited
  | Maximum stacksize for task 23: unlimited
  | Maximum stacksize for task 24: unlimited
  | Maximum stacksize for task 25: unlimited
  | Maximum stacksize for task 26: unlimited
  | Maximum stacksize for task 27: unlimited
  | Maximum stacksize for task 28: unlimited
  | Maximum stacksize for task 29: unlimited
  | Maximum stacksize for task 30: unlimited
  | Maximum stacksize for task 31: unlimited
  | Maximum stacksize for task 32: unlimited
  | Maximum stacksize for task 33: unlimited
  | Maximum stacksize for task 34: unlimited
  | Maximum stacksize for task 35: unlimited
  | Maximum stacksize for task 36: unlimited
  | Maximum stacksize for task 37: unlimited
  | Maximum stacksize for task 38: unlimited
  | Maximum stacksize for task 39: unlimited
  | Maximum stacksize for task 40: unlimited
  | Maximum stacksize for task 41: unlimited
  | Maximum stacksize for task 42: unlimited
  | Maximum stacksize for task 43: unlimited
  | Maximum stacksize for task 44: unlimited
  | Maximum stacksize for task 45: unlimited
  | Maximum stacksize for task 46: unlimited
  | Maximum stacksize for task 47: unlimited
  | Maximum stacksize for task 48: unlimited
  | Maximum stacksize for task 49: unlimited
  | Maximum stacksize for task 50: unlimited
  | Maximum stacksize for task 51: unlimited
  | Maximum stacksize for task 52: unlimited
  | Maximum stacksize for task 53: unlimited
  | Maximum stacksize for task 54: unlimited
  | Maximum stacksize for task 55: unlimited
  | Maximum stacksize for task 56: unlimited
  | Maximum stacksize for task 57: unlimited
  | Maximum stacksize for task 58: unlimited
  | Maximum stacksize for task 59: unlimited
  | Maximum stacksize for task 60: unlimited
  | Maximum stacksize for task 61: unlimited
  | Maximum stacksize for task 62: unlimited
  | Maximum stacksize for task 63: unlimited
  | Maximum stacksize for task 64: unlimited
  | Maximum stacksize for task 65: unlimited
  | Maximum stacksize for task 66: unlimited
  | Maximum stacksize for task 67: unlimited
  | Maximum stacksize for task 68: unlimited
  | Maximum stacksize for task 69: unlimited
  | Maximum stacksize for task 70: unlimited
  | Maximum stacksize for task 71: unlimited
  | Maximum stacksize for task 72: unlimited
  | Maximum stacksize for task 73: unlimited
  | Maximum stacksize for task 74: unlimited
  | Maximum stacksize for task 75: unlimited
  | Maximum stacksize for task 76: unlimited
  | Maximum stacksize for task 77: unlimited
  | Maximum stacksize for task 78: unlimited
  | Maximum stacksize for task 79: unlimited
  | Maximum stacksize for task 80: unlimited
  | Maximum stacksize for task 81: unlimited
  | Maximum stacksize for task 82: unlimited
  | Maximum stacksize for task 83: unlimited
  | Maximum stacksize for task 84: unlimited
  | Maximum stacksize for task 85: unlimited
  | Maximum stacksize for task 86: unlimited
  | Maximum stacksize for task 87: unlimited
  | Maximum stacksize for task 88: unlimited
  | Maximum stacksize for task 89: unlimited
  | Maximum stacksize for task 90: unlimited
  | Maximum stacksize for task 91: unlimited
  | Maximum stacksize for task 92: unlimited
  | Maximum stacksize for task 93: unlimited
  | Maximum stacksize for task 94: unlimited
  | Maximum stacksize for task 95: unlimited
  | Maximum stacksize for task 96: unlimited
  | Maximum stacksize for task 97: unlimited
  | Maximum stacksize for task 98: unlimited
  | Maximum stacksize for task 99: unlimited
  | Maximum stacksize for task 100: unlimited
  | Maximum stacksize for task 101: unlimited
  | Maximum stacksize for task 102: unlimited
  | Maximum stacksize for task 103: unlimited
  | Maximum stacksize for task 104: unlimited
  | Maximum stacksize for task 105: unlimited
  | Maximum stacksize for task 106: unlimited
  | Maximum stacksize for task 107: unlimited
  | Maximum stacksize for task 108: unlimited
  | Maximum stacksize for task 109: unlimited
  | Maximum stacksize for task 110: unlimited
  | Maximum stacksize for task 111: unlimited
  | Maximum stacksize for task 112: unlimited
  | Maximum stacksize for task 113: unlimited
  | Maximum stacksize for task 114: unlimited
  | Maximum stacksize for task 115: unlimited
  | Maximum stacksize for task 116: unlimited
  | Maximum stacksize for task 117: unlimited
  | Maximum stacksize for task 118: unlimited
  | Maximum stacksize for task 119: unlimited
  | Maximum stacksize for task 120: unlimited
  | Maximum stacksize for task 121: unlimited
  | Maximum stacksize for task 122: unlimited
  | Maximum stacksize for task 123: unlimited
  | Maximum stacksize for task 124: unlimited
  | Maximum stacksize for task 125: unlimited
  | Maximum stacksize for task 126: unlimited
  | Maximum stacksize for task 127: unlimited
  | Maximum stacksize for task 128: unlimited
  | Maximum stacksize for task 129: unlimited
  | Maximum stacksize for task 130: unlimited
  | Maximum stacksize for task 131: unlimited
  | Maximum stacksize for task 132: unlimited
  | Maximum stacksize for task 133: unlimited
  | Maximum stacksize for task 134: unlimited
  | Maximum stacksize for task 135: unlimited
  | Maximum stacksize for task 136: unlimited
  | Maximum stacksize for task 137: unlimited
  | Maximum stacksize for task 138: unlimited
  | Maximum stacksize for task 139: unlimited
  | Maximum stacksize for task 140: unlimited
  | Maximum stacksize for task 141: unlimited
  | Maximum stacksize for task 142: unlimited
  | Maximum stacksize for task 143: unlimited
  | Maximum stacksize for task 144: unlimited
  | Maximum stacksize for task 145: unlimited
  | Maximum stacksize for task 146: unlimited
  | Maximum stacksize for task 147: unlimited
  | Maximum stacksize for task 148: unlimited
  | Maximum stacksize for task 149: unlimited
  | Maximum stacksize for task 150: unlimited
  | Maximum stacksize for task 151: unlimited
  | Maximum stacksize for task 152: unlimited
  | Maximum stacksize for task 153: unlimited
  | Maximum stacksize for task 154: unlimited
  | Maximum stacksize for task 155: unlimited
  | Maximum stacksize for task 156: unlimited
  | Maximum stacksize for task 157: unlimited
  | Maximum stacksize for task 158: unlimited
  | Maximum stacksize for task 159: unlimited
  | Maximum stacksize for task 160: unlimited
  | Maximum stacksize for task 161: unlimited
  | Maximum stacksize for task 162: unlimited
  | Maximum stacksize for task 163: unlimited
  | Maximum stacksize for task 164: unlimited
  | Maximum stacksize for task 165: unlimited
  | Maximum stacksize for task 166: unlimited
  | Maximum stacksize for task 167: unlimited
  | Maximum stacksize for task 168: unlimited
  | Maximum stacksize for task 169: unlimited
  | Maximum stacksize for task 170: unlimited
  | Maximum stacksize for task 171: unlimited
  | Maximum stacksize for task 172: unlimited
  | Maximum stacksize for task 173: unlimited
  | Maximum stacksize for task 174: unlimited
  | Maximum stacksize for task 175: unlimited
  | Maximum stacksize for task 176: unlimited
  | Maximum stacksize for task 177: unlimited
  | Maximum stacksize for task 178: unlimited
  | Maximum stacksize for task 179: unlimited
  | Maximum stacksize for task 180: unlimited
  | Maximum stacksize for task 181: unlimited
  | Maximum stacksize for task 182: unlimited
  | Maximum stacksize for task 183: unlimited
  | Maximum stacksize for task 184: unlimited
[...]
  | writing   projected DOS (raw data) for species O to file atom_proj_dos_O0101_raw.dat.
  | writing   projected DOS (shifted by the chemical potential) for species O to file atom_proj_dos_O0102.dat.
  | writing   projected DOS (raw data) for species O to file atom_proj_dos_O0102_raw.dat.
  | writing   projected DOS (shifted by the chemical potential) for species Ti to file atom_proj_dos_Ti0103.dat.
  | writing   projected DOS (raw data) for species Ti to file atom_proj_dos_Ti0103_raw.dat.
  | writing   projected DOS (shifted by the chemical potential) for species Ti to file atom_proj_dos_Ti0104.dat.
  | writing   projected DOS (raw data) for species Ti to file atom_proj_dos_Ti0104_raw.dat.
  | writing   projected DOS (shifted by the chemical potential) for species O to file atom_proj_dos_O0105.dat.
  | writing   projected DOS (raw data) for species O to file atom_proj_dos_O0105_raw.dat.
  | writing   projected DOS (shifted by the chemical potential) for species O to file atom_proj_dos_O0106.dat.
  | writing   projected DOS (raw data) for species O to file atom_proj_dos_O0106_raw.dat.
  | writing   projected DOS (shifted by the chemical potential) for species O to file atom_proj_dos_O0107.dat.
  | writing   projected DOS (raw data) for species O to file atom_proj_dos_O0107_raw.dat.
  | writing   projected DOS (shifted by the chemical potential) for species O to file atom_proj_dos_O0108.dat.
  | writing   projected DOS (raw data) for species O to file atom_proj_dos_O0108_raw.dat.
  | writing   projected DOS (shifted by the chemical potential) for species Ti to file atom_proj_dos_Ti0109.dat.
  | writing   projected DOS (raw data) for species Ti to file atom_proj_dos_Ti0109_raw.dat.
  | writing   projected DOS (shifted by the chemical potential) for species Ti to file atom_proj_dos_Ti0110.dat.
  | writing   projected DOS (raw data) for species Ti to file atom_proj_dos_Ti0110_raw.dat.
  | writing   projected DOS (shifted by the chemical potential) for species O to file atom_proj_dos_O0111.dat.
  | writing   projected DOS (raw data) for species O to file atom_proj_dos_O0111_raw.dat.
  | writing   projected DOS (shifted by the chemical potential) for species O to file atom_proj_dos_O0112.dat.
  | writing   projected DOS (raw data) for species O to file atom_proj_dos_O0112_raw.dat.
  | writing   projected DOS (shifted by the chemical potential) for species O to file atom_proj_dos_O0113.dat.
  | writing   projected DOS (raw data) for species O to file atom_proj_dos_O0113_raw.dat.
  | writing   projected DOS (shifted by the chemical potential) for species O to file atom_proj_dos_O0114.dat.
  | writing   projected DOS (raw data) for species O to file atom_proj_dos_O0114_raw.dat.
  | writing   projected DOS (shifted by the chemical potential) for species Ti to file atom_proj_dos_Ti0115.dat.
  | writing   projected DOS (raw data) for species Ti to file atom_proj_dos_Ti0115_raw.dat.
  | writing   projected DOS (shifted by the chemical potential) for species Ti to file atom_proj_dos_Ti0116.dat.
  | writing   projected DOS (raw data) for species Ti to file atom_proj_dos_Ti0116_raw.dat.
  | writing   projected DOS (shifted by the chemical potential) for species O to file atom_proj_dos_O0117.dat.
  | writing   projected DOS (raw data) for species O to file atom_proj_dos_O0117_raw.dat.
  | writing   projected DOS (shifted by the chemical potential) for species O to file atom_proj_dos_O0118.dat.
  | writing   projected DOS (raw data) for species O to file atom_proj_dos_O0118_raw.dat.
  | writing   projected DOS (shifted by the chemical potential) for species O to file atom_proj_dos_O0119.dat.
  | writing   projected DOS (raw data) for species O to file atom_proj_dos_O0119_raw.dat.
  | writing   projected DOS (shifted by the chemical potential) for species O to file atom_proj_dos_O0120.dat.
  | writing   projected DOS (raw data) for species O to file atom_proj_dos_O0120_raw.dat.
  | writing   projected DOS (shifted by the chemical potential) for species Ti to file atom_proj_dos_Ti0121.dat.
  | writing   projected DOS (raw data) for species Ti to file atom_proj_dos_Ti0121_raw.dat.
  | writing   projected DOS (shifted by the chemical potential) for species Ti to file atom_proj_dos_Ti0122.dat.
  | writing   projected DOS (raw data) for species Ti to file atom_proj_dos_Ti0122_raw.dat.
  | writing   projected DOS (shifted by the chemical potential) for species O to file atom_proj_dos_O0123.dat.
  | writing   projected DOS (raw data) for species O to file atom_proj_dos_O0123_raw.dat.
  | writing   projected DOS (shifted by the chemical potential) for species O to file atom_proj_dos_O0124.dat.
  | writing   projected DOS (raw data) for species O to file atom_proj_dos_O0124_raw.dat.
  | writing   projected DOS (shifted by the chemical potential) for species O to file atom_proj_dos_O0125.dat.
  | writing   projected DOS (raw data) for species O to file atom_proj_dos_O0125_raw.dat.
  | writing   projected DOS (shifted by the chemical potential) for species O to file atom_proj_dos_O0126.dat.
  | writing   projected DOS (raw data) for species O to file atom_proj_dos_O0126_raw.dat.
  | writing   projected DOS (shifted by the chemical potential) for species Ti to file atom_proj_dos_Ti0127.dat.
  | writing   projected DOS (raw data) for species Ti to file atom_proj_dos_Ti0127_raw.dat.
  | writing   projected DOS (shifted by the chemical potential) for species Ti to file atom_proj_dos_Ti0128.dat.
  | writing   projected DOS (raw data) for species Ti to file atom_proj_dos_Ti0128_raw.dat.
  | writing   projected DOS (shifted by the chemical potential) for species O to file atom_proj_dos_O0129.dat.
  | writing   projected DOS (raw data) for species O to file atom_proj_dos_O0129_raw.dat.
  | writing   projected DOS (shifted by the chemical potential) for species O to file atom_proj_dos_O0130.dat.
  | writing   projected DOS (raw data) for species O to file atom_proj_dos_O0130_raw.dat.
  | writing   projected DOS (shifted by the chemical potential) for species O to file atom_proj_dos_O0131.dat.
  | writing   projected DOS (raw data) for species O to file atom_proj_dos_O0131_raw.dat.
  | writing   projected DOS (shifted by the chemical potential) for species O to file atom_proj_dos_O0132.dat.
  | writing   projected DOS (raw data) for species O to file atom_proj_dos_O0132_raw.dat.
  | writing   projected DOS (shifted by the chemical potential) for species Ti to file atom_proj_dos_Ti0133.dat.
  | writing   projected DOS (raw data) for species Ti to file atom_proj_dos_Ti0133_raw.dat.
  | writing   projected DOS (shifted by the chemical potential) for species Ti to file atom_proj_dos_Ti0134.dat.
  | writing   projected DOS (raw data) for species Ti to file atom_proj_dos_Ti0134_raw.dat.
  | writing   projected DOS (shifted by the chemical potential) for species O to file atom_proj_dos_O0135.dat.
  | writing   projected DOS (raw data) for species O to file atom_proj_dos_O0135_raw.dat.
  | writing   projected DOS (shifted by the chemical potential) for species O to file atom_proj_dos_O0136.dat.
  | writing   projected DOS (raw data) for species O to file atom_proj_dos_O0136_raw.dat.
  | writing   projected DOS (shifted by the chemical potential) for species O to file atom_proj_dos_O0137.dat.
  | writing   projected DOS (raw data) for species O to file atom_proj_dos_O0137_raw.dat.
  | writing   projected DOS (shifted by the chemical potential) for species O to file atom_proj_dos_O0138.dat.
  | writing   projected DOS (raw data) for species O to file atom_proj_dos_O0138_raw.dat.
  | writing   projected DOS (shifted by the chemical potential) for species Ti to file atom_proj_dos_Ti0139.dat.
  | writing   projected DOS (raw data) for species Ti to file atom_proj_dos_Ti0139_raw.dat.
  | writing   projected DOS (shifted by the chemical potential) for species Ti to file atom_proj_dos_Ti0140.dat.
  | writing   projected DOS (raw data) for species Ti to file atom_proj_dos_Ti0140_raw.dat.
  | writing   projected DOS (shifted by the chemical potential) for species O to file atom_proj_dos_O0141.dat.
  | writing   projected DOS (raw data) for species O to file atom_proj_dos_O0141_raw.dat.
  | writing   projected DOS (shifted by the chemical potential) for species O to file atom_proj_dos_O0142.dat.
  | writing   projected DOS (raw data) for species O to file atom_proj_dos_O0142_raw.dat.
  | writing   projected DOS (shifted by the chemical potential) for species O to file atom_proj_dos_O0143.dat.
  | writing   projected DOS (raw data) for species O to file atom_proj_dos_O0143_raw.dat.
  | writing   projected DOS (shifted by the chemical potential) for species O to file atom_proj_dos_O0144.dat.
  | writing   projected DOS (raw data) for species O to file atom_proj_dos_O0144_raw.dat.
  | writing   projected DOS (shifted by the chemical potential) for species Ti to file atom_proj_dos_Ti0145.dat.
  | writing   projected DOS (raw data) for species Ti to file atom_proj_dos_Ti0145_raw.dat.
  | writing   projected DOS (shifted by the chemical potential) for species Ti to file atom_proj_dos_Ti0146.dat.
  | writing   projected DOS (raw data) for species Ti to file atom_proj_dos_Ti0146_raw.dat.
  | writing   projected DOS (shifted by the chemical potential) for species O to file atom_proj_dos_O0147.dat.
  | writing   projected DOS (raw data) for species O to file atom_proj_dos_O0147_raw.dat.
  | writing   projected DOS (shifted by the chemical potential) for species O to file atom_proj_dos_O0148.dat.
  | writing   projected DOS (raw data) for species O to file atom_proj_dos_O0148_raw.dat.
  | writing   projected DOS (shifted by the chemical potential) for species O to file atom_proj_dos_O0149.dat.
  | writing   projected DOS (raw data) for species O to file atom_proj_dos_O0149_raw.dat.
  | writing   projected DOS (shifted by the chemical potential) for species O to file atom_proj_dos_O0150.dat.
  | writing   projected DOS (raw data) for species O to file atom_proj_dos_O0150_raw.dat.
  | writing   projected DOS (shifted by the chemical potential) for species Ti to file atom_proj_dos_Ti0151.dat.
  | writing   projected DOS (raw data) for species Ti to file atom_proj_dos_Ti0151_raw.dat.
  | writing   projected DOS (shifted by the chemical potential) for species Ti to file atom_proj_dos_Ti0152.dat.
  | writing   projected DOS (raw data) for species Ti to file atom_proj_dos_Ti0152_raw.dat.
  | writing   projected DOS (shifted by the chemical potential) for species O to file atom_proj_dos_O0153.dat.
  | writing   projected DOS (raw data) for species O to file atom_proj_dos_O0153_raw.dat.
  | writing   projected DOS (shifted by the chemical potential) for species O to file atom_proj_dos_O0154.dat.
  | writing   projected DOS (raw data) for species O to file atom_proj_dos_O0154_raw.dat.
  | writing   projected DOS (shifted by the chemical potential) for species O to file atom_proj_dos_O0155.dat.
  | writing   projected DOS (raw data) for species O to file atom_proj_dos_O0155_raw.dat.
  | writing   projected DOS (shifted by the chemical potential) for species O to file atom_proj_dos_O0156.dat.
  | writing   projected DOS (raw data) for species O to file atom_proj_dos_O0156_raw.dat.
  | writing   projected DOS (shifted by the chemical potential) for species Ti to file atom_proj_dos_Ti0157.dat.
  | writing   projected DOS (raw data) for species Ti to file atom_proj_dos_Ti0157_raw.dat.
  | writing   projected DOS (shifted by the chemical potential) for species Ti to file atom_proj_dos_Ti0158.dat.
  | writing   projected DOS (raw data) for species Ti to file atom_proj_dos_Ti0158_raw.dat.
  | writing   projected DOS (shifted by the chemical potential) for species O to file atom_proj_dos_O0159.dat.
  | writing   projected DOS (raw data) for species O to file atom_proj_dos_O0159_raw.dat.
  | writing   projected DOS (shifted by the chemical potential) for species O to file atom_proj_dos_O0160.dat.
  | writing   projected DOS (raw data) for species O to file atom_proj_dos_O0160_raw.dat.
  | writing   projected DOS (shifted by the chemical potential) for species O to file atom_proj_dos_O0161.dat.
  | writing   projected DOS (raw data) for species O to file atom_proj_dos_O0161_raw.dat.
  | writing   projected DOS (shifted by the chemical potential) for species O to file atom_proj_dos_O0162.dat.
  | writing   projected DOS (raw data) for species O to file atom_proj_dos_O0162_raw.dat.
  Mulliken analysis                                       :  max(cpu_time)    wall_clock(cpu1)
  | Time for Mulliken analysis                            :          0.818               1.202
  | Total time for Mulliken analysis                      :          0.818               1.202
------------------------------------------------------------

------------------------------------------------------------------------------
  Final output of selected total energy values:

  The following output summarizes some interesting total energy values
  at the end of a run (AFTER all relaxation, molecular dynamics, etc.).

  | Total energy of the DFT / Hartree-Fock s.c.f. calculation      :       -1912198.534591273 eV
  | Final zero-broadening corrected energy (caution - metals only) :       -1912198.534659345 eV
  | For reference only, the value of 1 Hartree used in FHI-aims is :             27.211384500 eV
  | For reference only, the overall average (free atom contribution
  | + realspace contribution) of the electrostatic potential after
  | s.c.f. convergence is                                          :            -17.433704958 eV

  Before relying on these values, please be sure to understand exactly which
  total energy value is referred to by a given number. Different objects may
  all carry the same name 'total energy'. Definitions:

  Total energy of the DFT / Hartree-Fock s.c.f. calculation:
  | Note that this energy does not include ANY quantities calculated after the
  | s.c.f. cycle, in particular not ANY RPA, MP2, etc. many-body perturbation terms.

  Final zero-broadening corrected energy:
  | For metallic systems only, a broadening of the occupation numbers at the Fermi
  | level can be extrapolated back to zero broadening by an electron-gas inspired
  | formula. For all systems that are not real metals, this value can be
  | meaningless and should be avoided.

------------------------------------------------------------------------------
  Methods described in the following list of references were used in this FHI-aims run.
  If you publish the results, please make sure to cite these reference if they apply.
  FHI-aims is an academic code, and for our developers (often, Ph.D. students
  and postdocs), scientific credit in the community is essential.
  Thank you for helping us!

  For any use of FHI-aims, please cite:

    Volker Blum, Ralf Gehrke, Felix Hanke, Paula Havu, Ville Havu,
    Xinguo Ren, Karsten Reuter, and Matthias Scheffler
    'Ab initio molecular simulations with numeric atom-centered orbitals'
    Computer Physics Communications 180, 2175-2196 (2009)
    http://doi.org/10.1016/j.cpc.2009.06.022


  The provided symmetry information was generated with SPGlib:

    Atsushi Togo, Yusuke Seto, Dimitar Pashov
    SPGlib 1.7.3 obtained from http://spglib.sourceforge.net
    Copyright (C) 2008 Atsushi Togo


 DFT+U infrastructure was used in your run
 please cite:

 Matthias Kick, Karsten Reuter and Harald Oberhofer,
 Intricacies Of DFT+U, not only in a Numeric Atom Centered Orbital Framework

 Journal of Chemical Theory and Computation
 https://


  The ELSI infrastructure was used in your run to solve the Kohn-Sham electronic structure.
  Please check out http://elsi-interchange.org to learn more.
  If scalability is important for your project, please acknowledge ELSI by citing:

    V. W-z. Yu, F. Corsetti, A. Garcia, W. P. Huhn, M. Jacquelin, W. Jia,
    B. Lange, L. Lin, J. Lu, W. Mi, A. Seifitokaldani, A. Vazquez-Mayagoitia,
    C. Yang, H. Yang, and V. Blum
    'ELSI: A unified software interface for Kohn-Sham electronic structure solvers'
    Computer Physics Communications 222, 267-285 (2018).
    http://doi.org/10.1016/j.cpc.2017.09.007


  For the real-space grid partitioning and parallelization used in this calculation, please cite:

    Ville Havu, Volker Blum, Paula Havu, and Matthias Scheffler,
    'Efficient O(N) integration for all-electron electronic structure calculation'
    'using numerically tabulated basis functions'
    Journal of Computational Physics 228, 8367-8379 (2009).
    http://doi.org/10.1016/j.jcp.2009.08.008

  Of course, there are many other important community references, e.g., those cited in the
  above references. Our list is limited to references that describe implementations in the
  FHI-aims code. The reason is purely practical (length of this list) - please credit others as well.

 * A warning was issued further up regarding the accuracy of onsite integrals.
   An integral with a negative eigenvalue was among the flagged integrals.
   In most standard situations, this warning is probably harmless.
   If needed, this can be verified by adjusting the radial_multiplier flag.

------------------------------------------------------------
          Leaving FHI-aims.
          Date     :  20240724, Time     :  075002.824

          Computational steps:
          | Number of self-consistency cycles          :           34
          | Number of SCF (re)initializations          :            1

          Detailed time accounting                     :  max(cpu_time)    wall_clock(cpu1)
          | Total time                                  :      337.095 s         338.494 s
          | Preparation time                            :        1.128 s           1.127 s
          | Boundary condition initalization            :        0.240 s           0.240 s
          | Grid partitioning                           :        0.485 s           0.485 s
          | Preloading free-atom quantities on grid     :        0.696 s           0.699 s
          | Free-atom superposition energy              :        0.299 s           0.299 s
          | Total time for integrations                 :       53.206 s          53.331 s
          | Total time for solution of K.-S. equations  :      109.825 s          80.454 s
          | Total time for density & force components   :       86.299 s          86.523 s
          | Total time for mixing & preconditioning     :       33.486 s          33.303 s
          | Total time for Hartree multipole update     :        0.688 s           0.709 s
          | Total time for Hartree multipole sum        :       15.440 s          15.482 s
          | Total time for total energy evaluation      :        0.203 s           0.118 s
          | Total time NSC force correction             :        2.365 s           2.574 s
          | Total time for scaled ZORA corrections      :        0.000 s           0.000 s
          | Total time for band structures, DOS         :        0.022 s           0.013 s
          | Total time for Mulliken analysis            :        1.201 s           1.202 s

          Partial memory accounting:
          | Residual value for overall tracked memory usage across tasks:     0.000000 MB (should be 0.000000 MB)
          | Peak values for overall tracked memory usage:
          |   Minimum:      209.016 MB (on task   6 after allocating temp_ham_ovlp)
          |   Maximum:      209.666 MB (on task   0 after allocating temp_ham_ovlp)
          |   Average:      209.145 MB
          | Largest tracked array allocation:
          |   Minimum:       56.671 MB (overlap_matrix on task   0)
          |   Maximum:       56.671 MB (overlap_matrix on task   0)
          |   Average:       56.671 MB
          Note:  These values currently only include a subset of arrays which are explicitly tracked.
          The "true" memory usage will be greater.

          Have a nice day.
------------------------------------------------------------
