------------------------------------------------------------
          Invoking FHI-aims ...

          When using FHI-aims, please cite the following reference:

            Volker Blum, Ralf Gehrke, Felix Hanke, Paula Havu,
            Ville Havu, Xinguo Ren, Karsten Reuter, and Matthias Scheffler,
            'Ab Initio Molecular Simulations with Numeric Atom-Centered Orbitals',
            Computer Physics Communications 180, 2175-2196 (2009)

          In addition, many other developments in FHI-aims are likely important for
          your particular application. If so, please cite them. A partial list of references
          is written at the end of this file. Thank you for giving credit to the authors
          of these developments.

          For general information about FHI-aims please find us at

            https://fhi-aims.org

          Online tutorials can be found at

            https://fhi-aims-club.gitlab.io/tutorials/tutorials-overview/

          For any questions about FHI-aims, please visit our slack channel at

            https://fhi-aims.slack.com

          and our main development and support site at

            https://aims-git.rz-berlin.mpg.de .

          The latter site, in particular, has a wiki to collect information, as well
          as an issue tracker to log discussions, suggest improvements, and report issues
          or bugs. https://aims-git.rz-berlin.mpg.de is also the main development site
          of the project and all new and updated code versions can be obtained there.
          Please send an email to aims-coordinators@fhi-berlin.mpg.de and we will add
          you to these sites. They are for you and everyone is welcome there.

------------------------------------------------------------



  Date     :  20240719, Time     :  145438.504
  Time zero on CPU 1             :   0.209717000000000E+00  s.
  Internal wall clock time zero  :           490632878.504  s.

  FHI-aims created a unique identifier for this run for later identification
  aims_uuid : 66C9246E-AE03-441B-A5A5-95035E2BB35E

  Build configuration of the current instance of FHI-aims
  -------------------------------------------------------
  FHI-aims version      : 230612
  Commit number         : 0c86b0d53
  CMake host system     : Linux-3.10.0-1160.80.1.el7.x86_64
  CMake version         : 3.24.2
  Fortran compiler      : /apps/compilers/intel/2018.2/compilers_and_libraries_2018/linux/mpi/intel64/bin/mpif90 (Intel) version 18.0.2.20180210
  Fortran compiler flags: -O3 -ip -fp-model precise
  C compiler            : /apps/compilers/intel/2018.2/compilers_and_libraries_2018/linux/bin/intel64/icc (Intel) version 18.0.2.20180210
  C compiler flags      : -O3 -ip -fp-model precise -std=gnu99
  HIP compiler          :
  HIP compiler flags    :
  HIP GPU arch          :
  ELPA2 kernel          : AVX2
  Using MPI
  Using ScaLAPACK
  Using LibXC
  Using i-PI
  Using RLSY
  Linking against: /apps/compilers/intel/2018.2/compilers_and_libraries_2018/linux/mkl/lib/intel64/libmkl_intel_lp64.so
                   /apps/compilers/intel/2018.2/compilers_and_libraries_2018/linux/mkl/lib/intel64/libmkl_intel_thread.so
                   /apps/compilers/intel/2018.2/compilers_and_libraries_2018/linux/mkl/lib/intel64/libmkl_core.so
                   /apps/compilers/intel/2018.2/compilers_and_libraries_2018/linux/mkl/lib/intel64/libmkl_blacs_intelmpi_lp64.so
                   /apps/compilers/intel/2018.2/compilers_and_libraries_2018/linux/mkl/lib/intel64/libmkl_scalapack_lp64.so
                   /usr/lib64/libpthread.so

  Using      200 parallel tasks.
  Task        0 on host ccs0004 reporting.
  Task        1 on host ccs0004 reporting.
  Task        2 on host ccs0004 reporting.
  Task        3 on host ccs0004 reporting.
  Task        4 on host ccs0004 reporting.
  Task        5 on host ccs0004 reporting.
  Task        6 on host ccs0004 reporting.
  Task        7 on host ccs0004 reporting.
  Task        8 on host ccs0004 reporting.
  Task        9 on host ccs0004 reporting.
  Task       10 on host ccs0004 reporting.
  Task       11 on host ccs0004 reporting.
  Task       12 on host ccs0004 reporting.
  Task       13 on host ccs0004 reporting.
  Task       14 on host ccs0004 reporting.
  Task       15 on host ccs0004 reporting.
  Task       16 on host ccs0004 reporting.
  Task       17 on host ccs0004 reporting.
  Task       18 on host ccs0004 reporting.
  Task       19 on host ccs0004 reporting.
  Task       20 on host ccs0004 reporting.
  Task       21 on host ccs0004 reporting.
  Task       22 on host ccs0004 reporting.
  Task       23 on host ccs0004 reporting.
  Task       24 on host ccs0004 reporting.
  Task       25 on host ccs0004 reporting.
  Task       26 on host ccs0004 reporting.
  Task       27 on host ccs0004 reporting.
  Task       28 on host ccs0004 reporting.
  Task       29 on host ccs0004 reporting.
  Task       30 on host ccs0004 reporting.
  Task       31 on host ccs0004 reporting.
  Task       32 on host ccs0004 reporting.
  Task       33 on host ccs0004 reporting.
  Task       34 on host ccs0004 reporting.
  Task       35 on host ccs0004 reporting.
  Task       36 on host ccs0004 reporting.
  Task       37 on host ccs0004 reporting.
  Task       38 on host ccs0004 reporting.
  Task       39 on host ccs0004 reporting.
  Task       40 on host ccs0007 reporting.
  Task       41 on host ccs0007 reporting.
  Task       42 on host ccs0007 reporting.
  Task       43 on host ccs0007 reporting.
  Task       44 on host ccs0007 reporting.
  Task       45 on host ccs0007 reporting.
  Task       46 on host ccs0007 reporting.
  Task       47 on host ccs0007 reporting.
  Task       48 on host ccs0007 reporting.
  Task       49 on host ccs0007 reporting.
  Task       50 on host ccs0007 reporting.
  Task       51 on host ccs0007 reporting.
  Task       52 on host ccs0007 reporting.
  Task       53 on host ccs0007 reporting.
  Task       54 on host ccs0007 reporting.
  Task       55 on host ccs0007 reporting.
  Task       56 on host ccs0007 reporting.
  Task       57 on host ccs0007 reporting.
  Task       58 on host ccs0007 reporting.
  Task       59 on host ccs0007 reporting.
  Task       60 on host ccs0007 reporting.
  Task       61 on host ccs0007 reporting.
  Task       62 on host ccs0007 reporting.
  Task       63 on host ccs0007 reporting.
  Task       64 on host ccs0007 reporting.
  Task       65 on host ccs0007 reporting.
  Task       66 on host ccs0007 reporting.
  Task       67 on host ccs0007 reporting.
  Task       68 on host ccs0007 reporting.
  Task       69 on host ccs0007 reporting.
  Task       70 on host ccs0007 reporting.
  Task       71 on host ccs0007 reporting.
  Task       72 on host ccs0007 reporting.
  Task       73 on host ccs0007 reporting.
  Task       74 on host ccs0007 reporting.
  Task       75 on host ccs0007 reporting.
  Task       76 on host ccs0007 reporting.
  Task       77 on host ccs0007 reporting.
  Task       78 on host ccs0007 reporting.
  Task       79 on host ccs0007 reporting.
  Task       80 on host ccs0008 reporting.
  Task       81 on host ccs0008 reporting.
  Task       82 on host ccs0008 reporting.
  Task       83 on host ccs0008 reporting.
  Task       84 on host ccs0008 reporting.
  Task       85 on host ccs0008 reporting.
  Task       86 on host ccs0008 reporting.
  Task       87 on host ccs0008 reporting.
  Task       88 on host ccs0008 reporting.
  Task       89 on host ccs0008 reporting.
  Task       90 on host ccs0008 reporting.
  Task       91 on host ccs0008 reporting.
  Task       92 on host ccs0008 reporting.
  Task       93 on host ccs0008 reporting.
  Task       94 on host ccs0008 reporting.
  Task       95 on host ccs0008 reporting.
  Task       96 on host ccs0008 reporting.
  Task       97 on host ccs0008 reporting.
  Task       98 on host ccs0008 reporting.
  Task       99 on host ccs0008 reporting.
  Task      100 on host ccs0008 reporting.
  Task      101 on host ccs0008 reporting.
  Task      102 on host ccs0008 reporting.
  Task      103 on host ccs0008 reporting.
  Task      104 on host ccs0008 reporting.
  Task      105 on host ccs0008 reporting.
  Task      106 on host ccs0008 reporting.
  Task      107 on host ccs0008 reporting.
  Task      108 on host ccs0008 reporting.
  Task      109 on host ccs0008 reporting.
  Task      110 on host ccs0008 reporting.
  Task      111 on host ccs0008 reporting.
  Task      112 on host ccs0008 reporting.
  Task      113 on host ccs0008 reporting.
  Task      114 on host ccs0008 reporting.
  Task      115 on host ccs0008 reporting.
  Task      116 on host ccs0008 reporting.
  Task      117 on host ccs0008 reporting.
  Task      118 on host ccs0008 reporting.
  Task      119 on host ccs0008 reporting.
  Task      120 on host ccs0011 reporting.
  Task      121 on host ccs0011 reporting.
  Task      122 on host ccs0011 reporting.
  Task      123 on host ccs0011 reporting.
  Task      124 on host ccs0011 reporting.
  Task      125 on host ccs0011 reporting.
  Task      126 on host ccs0011 reporting.
  Task      127 on host ccs0011 reporting.
  Task      128 on host ccs0011 reporting.
  Task      129 on host ccs0011 reporting.
  Task      130 on host ccs0011 reporting.
  Task      131 on host ccs0011 reporting.
  Task      132 on host ccs0011 reporting.
  Task      133 on host ccs0011 reporting.
  Task      134 on host ccs0011 reporting.
  Task      135 on host ccs0011 reporting.
  Task      136 on host ccs0011 reporting.
  Task      137 on host ccs0011 reporting.
  Task      138 on host ccs0011 reporting.
  Task      139 on host ccs0011 reporting.
  Task      140 on host ccs0011 reporting.
  Task      141 on host ccs0011 reporting.
  Task      142 on host ccs0011 reporting.
  Task      143 on host ccs0011 reporting.
  Task      144 on host ccs0011 reporting.
  Task      145 on host ccs0011 reporting.
  Task      146 on host ccs0011 reporting.
  Task      147 on host ccs0011 reporting.
  Task      148 on host ccs0011 reporting.
  Task      149 on host ccs0011 reporting.
  Task      150 on host ccs0011 reporting.
  Task      151 on host ccs0011 reporting.
  Task      152 on host ccs0011 reporting.
  Task      153 on host ccs0011 reporting.
  Task      154 on host ccs0011 reporting.
  Task      155 on host ccs0011 reporting.
  Task      156 on host ccs0011 reporting.
  Task      157 on host ccs0011 reporting.
  Task      158 on host ccs0011 reporting.
  Task      159 on host ccs0011 reporting.
  Task      160 on host ccs0012 reporting.
  Task      161 on host ccs0012 reporting.
  Task      162 on host ccs0012 reporting.
  Task      163 on host ccs0012 reporting.
  Task      164 on host ccs0012 reporting.
  Task      165 on host ccs0012 reporting.
  Task      166 on host ccs0012 reporting.
  Task      167 on host ccs0012 reporting.
  Task      168 on host ccs0012 reporting.
  Task      169 on host ccs0012 reporting.
  Task      170 on host ccs0012 reporting.
  Task      171 on host ccs0012 reporting.
  Task      172 on host ccs0012 reporting.
  Task      173 on host ccs0012 reporting.
  Task      174 on host ccs0012 reporting.
  Task      175 on host ccs0012 reporting.
  Task      176 on host ccs0012 reporting.
  Task      177 on host ccs0012 reporting.
  Task      178 on host ccs0012 reporting.
  Task      179 on host ccs0012 reporting.
  Task      180 on host ccs0012 reporting.
  Task      181 on host ccs0012 reporting.
  Task      182 on host ccs0012 reporting.
  Task      183 on host ccs0012 reporting.
  Task      184 on host ccs0012 reporting.
  Task      185 on host ccs0012 reporting.
  Task      186 on host ccs0012 reporting.
  Task      187 on host ccs0012 reporting.
  Task      188 on host ccs0012 reporting.
  Task      189 on host ccs0012 reporting.
  Task      190 on host ccs0012 reporting.
  Task      191 on host ccs0012 reporting.
  Task      192 on host ccs0012 reporting.
  Task      193 on host ccs0012 reporting.
  Task      194 on host ccs0012 reporting.
  Task      195 on host ccs0012 reporting.
  Task      196 on host ccs0012 reporting.
  Task      197 on host ccs0012 reporting.
  Task      198 on host ccs0012 reporting.
  Task      199 on host ccs0012 reporting.

  Obtaining array dimensions for all initial allocations:
  
  -----------------------------------------------------------------------
  Parsing control.in (first pass over file, find array dimensions only).
  The contents of control.in will be repeated verbatim below
  unless switched off by setting 'verbatim_writeout .false.' .
  in the first line of control.in .
  -----------------------------------------------------------------------
  
  #===============================================================================
  # FHI-aims file: ./control.in
  # Created using the Atomic Simulation Environment (ASE)
  # Fri Jul 19 14:54:37 2024
  #===============================================================================
  spin                               none
  relativistic                       atomic_zora scalar
  compute_forces                     .true.
  override_warning_libxc             true
  xc                                 libxc MGGA_X_MBEEF+GGA_C_PBE_SOL
  k_grid                             2 2 3
  occupation_type                    gaussian 0.1
  plus_u_petukhov_mixing             1
  plus_u_use_hydros                  True
  plus_u_matrix_control              True
  plus_u_matrix_release              0.001
  output                             dos -18 0 200 0.1
  output                             atom_proj_dos -18 0 200 0.1
  charge_mix_param                   0.05
  n_max_pulay                        16
  sc_accuracy_etot                   1e-06
  sc_accuracy_eev                    0.001
  sc_accuracy_rho                    1e-06
  sc_accuracy_forces                 0.0001
  #===============================================================================
  
  ################################################################################
  #
  #  FHI-aims code project
  #  VB, Fritz-Haber Institut, 2009
  #
  #  Suggested "light" defaults for Ti atom (to be pasted into control.in file)
  #  Be sure to double-check any results obtained with these settings for post-processing,
  #  e.g., with the "tight" defaults and larger basis sets.
  #
  ################################################################################
    species        Ti
  #     global species definitions
      nucleus             22
      mass                47.867
  #
      l_hartree           4
  #
      cut_pot             3.5          1.5  1.0
      basis_dep_cutoff    1e-4
  #
      radial_base         48 5.0
      radial_multiplier   1
      angular_grids       specified
        division   0.5171   50
        division   0.9824  110
        division   1.2917  194
        division   1.4940  302
  #      division   1.6934  434
  #      division   1.8425  590
  #      division   2.1901  770
  #      division   2.2896  974
  #      division   2.8244 1202
  #      outer_grid  974
        outer_grid  302
  ################################################################################
  #
  #  Definition of "minimal" basis
  #
  ################################################################################
  #     valence basis states
      valence      4  s   2.
      valence      3  p   6.
      valence      3  d   2.
  #     ion occupancy
      ion_occ      4  s   1.
      ion_occ      3  p   6.
      ion_occ      3  d   1.
  ################################################################################
  #
  #  Suggested additional basis functions. For production calculations,
  #  uncomment them one after another (the most important basis functions are
  #  listed first).
  #
  #  Constructed for dimers: 1.6 A, 1.85 A, 2.5 A, 3.25 A, 4.25 A
  #
  ################################################################################
  #  "First tier" - improvements: -396.25 meV to -19.41 meV
       hydro 4 f 8
       hydro 3 d 2.7
       ionic 4 p auto
  #     hydro 5 g 11.6
       ionic 4 s auto
  #  "Second tier" - improvements: -16.30 meV to -2.03 meV
  #     hydro 3 d 4.4
  #     hydro 6 h 16
  #     hydro 4 f 9.4
  #     hydro 4 p 4.5
  #     hydro 1 s 0.5
  #  "Third tier" - improvements: -6.28 meV to -0.37 meV
  #     hydro 4 d 6.4
  #     hydro 4 f 10
  #     hydro 5 g 12
  #     hydro 2 p 1.7
  #     hydro 6 h 16.4
  #     hydro 4 s 3.8
  #  Further basis functions: -0.45 meV and smaller improvements
  #     hydro 3 d 8.8
  #     hydro 5 p 18
  #     hydro 4 f 22.4
  #     hydro 5 f 7.2  # -0.16 meV
  #     hydro 3 d 2.1  # -0.11 meV
  #     hydro 5 g 7.4  # -0.09 meV
  plus_u 3 d 2.575
  hubbard_coefficient 0.752 -0.486 0 0
  ################################################################################
  #
  #  FHI-aims code project
  #  VB, Fritz-Haber Institut, 2009
  #
  #  Suggested "light" defaults for O atom (to be pasted into control.in file)
  #  Be sure to double-check any results obtained with these settings for post-processing,
  #  e.g., with the "tight" defaults and larger basis sets.
  #
  ################################################################################
    species        O
  #     global species definitions
      nucleus             8
      mass                15.9994
  #
      l_hartree           4
  #
      cut_pot             3.5  1.5  1.0
      basis_dep_cutoff    1e-4
  #
      radial_base         36 5.0
      radial_multiplier   1
       angular_grids specified
        division   0.2659   50
        division   0.4451  110
        division   0.6052  194
        division   0.7543  302
  #      division   0.8014  434
  #      division   0.8507  590
  #      division   0.8762  770
  #      division   0.9023  974
  #      division   1.2339 1202
  #      outer_grid 974
        outer_grid 302
  ################################################################################
  #
  #  Definition of "minimal" basis
  #
  ################################################################################
  #     valence basis states
      valence      2  s   2.
      valence      2  p   4.
  #     ion occupancy
      ion_occ      2  s   1.
      ion_occ      2  p   3.
  ################################################################################
  #
  #  Suggested additional basis functions. For production calculations,
  #  uncomment them one after another (the most important basis functions are
  #  listed first).
  #
  #  Constructed for dimers: 1.0 A, 1.208 A, 1.5 A, 2.0 A, 3.0 A
  #
  ################################################################################
  #  "First tier" - improvements: -699.05 meV to -159.38 meV
       hydro 2 p 1.8
       hydro 3 d 7.6
       hydro 3 s 6.4
  #  "Second tier" - improvements: -49.91 meV to -5.39 meV
  #     hydro 4 f 11.6
  #     hydro 3 p 6.2
  #     hydro 3 d 5.6
  #     hydro 5 g 17.6
  #     hydro 1 s 0.75
  #  "Third tier" - improvements: -2.83 meV to -0.50 meV
  #     ionic 2 p auto
  #     hydro 4 f 10.8
  #     hydro 4 d 4.7
  #     hydro 2 s 6.8
  #  "Fourth tier" - improvements: -0.40 meV to -0.12 meV
  #     hydro 3 p 5
  #     hydro 3 s 3.3
  #     hydro 5 g 15.6
  #     hydro 4 f 17.6
  #     hydro 4 d 14
  # Further basis functions - -0.08 meV and below
  #     hydro 3 s 2.1
  #     hydro 4 d 11.6
  #     hydro 3 p 16
  #     hydro 2 s 17.2################################################################################
  #
  #  FHI-aims code project
  #  VB, Fritz-Haber Institut, 2010
  #
  #  Suggested "light" defaults for Mn atom (to be pasted into control.in file)
  #  Be sure to double-check any results obtained with these settings for post-processing,
  #  e.g., with the "tight" defaults and larger basis sets.
  #
  ################################################################################
    species        Mn
  #     global species definitions
      nucleus             25
      mass                54.938045
  #
      l_hartree           4
  #
      cut_pot             3.5          1.5  1.0
      basis_dep_cutoff    1e-4
  #
      radial_base         50 5.0
      radial_multiplier   1
      angular_grids       specified
        division   0.4222   50
        division   0.8072  110
        division   1.0787  194
        division   1.2927  302
  #      division   1.4573  434
  #      division   1.8560  590
  #      division   1.8945  770
  #      division   1.9339  974
  #      division   2.3905 1202
        outer_grid   302
  ################################################################################
  #
  #  Definition of "minimal" basis
  #
  ################################################################################
  #     valence basis states
      valence      4  s   2.
      valence      3  p   6.
      valence      3  d   5.
  #     ion occupancy
      ion_occ      4  s   1.
      ion_occ      3  p   6.
      ion_occ      3  d   4.
  ################################################################################
  #
  #  Suggested additional basis functions. For production calculations,
  #  uncomment them one after another (the most important basis functions are
  #  listed first).
  #
  #  Constructed for dimers: 1.40 A, 1.60 A, 2.10 A, 2.75 A, 3.75 A
  #
  ################################################################################
  #  "First tier" - improvements: -466.21 meV to -15.27 meV
       hydro 4 f 9.6
       hydro 3 d 3.2
       hydro 2 p 2
  #     hydro 5 g 13.6
       hydro 3 s 3.3
  #  "Second tier" - improvements: -21.45 meV to -1.55 meV
  #     hydro 3 d 6
  #     hydro 6 h 19.2
  #     hydro 4 f 6.4
  #     hydro 4 f 17.2
  #     hydro 3 p 3.1
  #     hydro 3 d 6.2
  #     hydro 5 g 10.8
  #     hydro 3 s 3.8
  #  "Third tier" - improvements: -1.38 meV to -0.13 meV
  #     hydro 5 p 8.6   -1.38 meV
  #     hydro 6 h 16    -0.73 meV
  #     hydro 3 d 10.8  -0.43 meV
  #     hydro 5 f 6.8   # forced: -0.26 meV
  #     hydro 5 g 6.4   # forced: -0.21 meV
  #     hydro 5 s 9.8   # forced: -0.13 meV
  #  Further functions: improvements -0.32 meV and below
  #     hydro 3 p 19.6  # -0.32 meV
  #     hydro 5 f 28.4  # -0.20 meV
  #     hydro 4 f 26    # -0.08 meV
  #     hydro 3 p 3.5
  #     hydro 5 g 14.8
  #     hydro 5 s 9
  #     hydro 4 p 16.8
  #     hydro 6 h 18
  #     hydro 4 d 13.6
  plus_u 3 d 0
  hubbard_coefficient 1 0 0 0
  
  -----------------------------------------------------------------------
  Completed first pass over input file control.in .
  -----------------------------------------------------------------------
  
  
  -----------------------------------------------------------------------
  Parsing geometry.in (first pass over file, find array dimensions only).
  The contents of geometry.in will be repeated verbatim below
  unless switched off by setting 'verbatim_writeout .false.' .
  in the first line of geometry.in .
  -----------------------------------------------------------------------
  
  #=======================================================
  # FHI-aims file: ./geometry.in
  # Created using the Atomic Simulation Environment (ASE)
  # Fri Jul 19 14:54:37 2024
  #=======================================================
  lattice_vector 13.7870999999999988 0.0000000000000000 0.0000000000000000
  lattice_vector 0.0000000000000000 13.7870999999999988 0.0000000000000000
  lattice_vector 0.0000000000000000 0.0000000000000000 8.8766999999999996
  atom_frac 0.1695448349259228 0.1616562096869987 0.1696175543662499 Ti
  atom_frac 0.0004868267679950 0.0001025009920722 -0.0039880621954478 Ti
  atom_frac 0.0643347040649005 0.2682548331778176 0.1671569118258188 O
  atom_frac 0.2685202493593412 0.0642228478702308 0.1670787878689816 O
  atom_frac 0.1015932058940189 0.1015032606293180 0.0003581566066890 O
  atom_frac 0.2307802969001360 0.2309632302139511 -0.0007007821542696 O
  atom_frac 0.1677721331395821 0.1762630804569648 0.5014320194933188 Ti
  atom_frac 0.0022137714579514 0.0039932291006410 0.3386532159165292 Ti
  atom_frac 0.0646334398601137 0.2690249997920418 0.5000065977649792 O
  atom_frac 0.2688401424036210 0.0646538448458064 0.5000786335870656 O
  atom_frac 0.1021481987667779 0.1020858100239172 0.3328763288605183 O
  atom_frac 0.2310665671210736 0.2311405928558515 0.3322421675934585 O
  atom_frac 0.1645435855626121 0.1625767905755090 0.8300314525476201 Ti
  atom_frac 0.0008752290575298 -0.0005969285654573 0.6620972129290553 Ti
  atom_frac 0.0640624492937669 0.2680921950188098 0.8332428967960216 O
  atom_frac 0.2682364392063860 0.0641371808691913 0.8338146915420821 O
  atom_frac 0.1023119117274019 0.1021879992482942 0.6662714375815197 O
  atom_frac 0.2311778758644102 0.2314178208420793 0.6675619053961683 O
  atom_frac 0.1645701982050144 0.4936155525729877 0.1667964485090976 Ti
  atom_frac 0.0052287494349087 0.3293241869423807 -0.0009768971217446 Ti
  atom_frac 0.0639466549728061 0.6013685165647018 0.1674595713049558 O
  atom_frac 0.2679235801616604 0.3976786606388389 0.1649680914967471 O
  atom_frac 0.1022909431485664 0.4345114096418610 -0.0003789093362262 O
  atom_frac 0.2313077375021501 0.5648093994417832 0.0001283103751194 O
  atom_frac 0.1615153927995427 0.5015618215405750 0.5005026513594867 Ti
  atom_frac -0.0041379884930702 0.3283010253213380 0.3337926152488951 Ti
  atom_frac 0.0645353782108696 0.6017309146097676 0.5002397926202623 O
  atom_frac 0.2686364574313709 0.3975745852823054 0.4993591427790777 O
  atom_frac 0.1016565272119383 0.4350215252798899 0.3335765580008755 O
  atom_frac 0.2313818933539976 0.5636487948751652 0.3329370643358521 O
  atom_frac 0.1722428190038322 0.5037712036923339 0.8331089202791958 Ti
  atom_frac -0.0028981083151796 0.3411651155616925 0.6681817109117086 Ti
  atom_frac 0.0649116559464334 0.6022826275830091 0.8338512015401455 O
  atom_frac 0.2691142230131904 0.3986484463102298 0.8319313409189174 O
  atom_frac 0.1015352261123007 0.4357868531451455 0.6667268392494424 O
  atom_frac 0.2316446443260848 0.5643680322805457 0.6661512366578796 O
  atom_frac 0.1606833054433856 0.8351066121385451 0.1680790304874725 Ti
  atom_frac 0.0052759516177695 0.6682517533812545 0.0020817514231125 Ti
  atom_frac 0.0651688739136068 0.9349469730421730 0.1663392749646808 O
  atom_frac 0.2694689013993803 0.7297902673771233 0.1667743630688572 O
  atom_frac 0.1025157838594188 0.7681400469524546 0.0006436631767673 O
  atom_frac 0.2324989029084177 0.8972086465771162 0.0007097479926264 O
  atom_frac 0.1692203724915650 0.8245336247088113 0.5009408958153507 Ti
  atom_frac -0.0052385148225043 0.6628073043257188 0.3324346519119043 Ti
  atom_frac 0.0645972746437812 0.9356570480054875 0.5002123659325237 O
  atom_frac 0.2697897622224211 0.7293884806504543 0.4997679102342104 O
  atom_frac 0.1027430711730468 0.7681043370458654 0.3338730030012101 O
  atom_frac 0.2316265431184952 0.8973237404821676 0.3337764100369550 O
  atom_frac 0.1720813742548760 0.8381298721929556 0.8314299694489206 Ti
  atom_frac -0.0007697852661712 0.6686829604874538 0.6704771190795608 Ti
  atom_frac 0.0657301468459811 0.9357194085882380 0.8342897641685877 O
  atom_frac 0.2699195646786135 0.7311402776506315 0.8330793121938413 O
  atom_frac 0.1026586230953912 0.7682080670178409 0.6673868374357271 O
  atom_frac 0.2318774607150296 0.8973892286364282 0.6663565517583281 O
  atom_frac 0.4928150308793068 0.1659199722914511 0.1671327761754407 Ti
  atom_frac 0.3394724560633291 -0.0044173720710085 -0.0003006594332136 Ti
  atom_frac 0.3973315796170771 0.2678890788443415 0.1649210333794161 O
  atom_frac 0.6015508084575042 0.0639912780604311 0.1677134197051995 O
  atom_frac 0.4351705907562566 0.1017422433077609 -0.0004056531299630 O
  atom_frac 0.5645999937588991 0.2315047558705669 0.0002473496072677 O
  atom_frac 0.5032945900032558 0.1610044618471596 0.4998684678085127 Ti
  atom_frac 0.3279895113883945 -0.0031825553571030 0.3354025473162014 Ti
  atom_frac 0.3975664506048359 0.2691137189733477 0.4993664534192767 O
  atom_frac 0.6016656866687875 0.0643743659019462 0.5003734279110693 O
  atom_frac 0.4349543501345588 0.1018268346623128 0.3337036594146152 O
  atom_frac 0.5635941509472984 0.2314686335546564 0.3330287689256652 O
  atom_frac 0.5029601188943956 0.1733023821198104 0.8337477576153685 Ti
  atom_frac 0.3335175777079877 0.0065262828763025 0.6674547374400190 Ti
  atom_frac 0.3985080189481670 0.2694319275340701 0.8320662306120411 O
  atom_frac 0.6022535623684389 0.0649883085811194 0.8336453851824870 O
  atom_frac 0.4350611437727195 0.1022642628932698 0.6667317217326270 O
  atom_frac 0.5644503458107601 0.2316499731551628 0.6661882280826504 O
  atom_frac 0.4909412879486092 0.4916072604518319 0.1540845638070809 Ti
  atom_frac 0.3262375332857765 0.3282545013622751 -0.0037204626040601 Ti
  atom_frac 0.3995218128418821 0.6010024207356341 0.1668915534954379 O
  atom_frac 0.6009084449057979 0.3994641891836438 0.1669507858179279 O
  atom_frac 0.4340653553566420 0.4342995916816653 -0.0043055150634814 O
  atom_frac 0.5640940150576413 0.5634538799998491 -0.0018977037925172 O
  atom_frac 0.5050424421212619 0.5049483304858999 0.4877243932064078 Mn
  atom_frac 0.3371657447969937 0.3370062902341917 0.3356244305345842 Ti
  atom_frac 0.3998607541075013 0.5987783209340647 0.4994252031348315 O
  atom_frac 0.5988227362570029 0.3999658074845762 0.4994868801048261 O
  atom_frac 0.4345989526192611 0.4345072691007451 0.3298727654021398 O
  atom_frac 0.5624208101850419 0.5626486287410077 0.3497255269120505 O
  atom_frac 0.5015281814628735 0.5013370633108505 0.8183810797925584 Ti
  atom_frac 0.3379374290591267 0.3372633287892411 0.6607707461225747 Ti
  atom_frac 0.3985541091365404 0.6006057762964494 0.8319038097754503 O
  atom_frac 0.6006171454998013 0.3984331872405567 0.8318889329393037 O
  atom_frac 0.4372888340643559 0.4372941525392627 0.6571703385574619 O
  atom_frac 0.5663832290591272 0.5667347128855456 0.6639189423368099 O
  atom_frac 0.4981137130709754 0.8271614146119397 0.1676874064178127 Ti
  atom_frac 0.3298946404102355 0.6710650660102744 0.0002833202443163 Ti
  atom_frac 0.3982628419230936 0.9345661174064159 0.1675073197825718 O
  atom_frac 0.6008989780497687 0.7292109923976168 0.1691377067369218 O
  atom_frac 0.4356755563946695 0.7681976833358295 0.0001661817741796 O
  atom_frac 0.5650119680822197 0.8975742665054076 0.0015624557048385 O
  atom_frac 0.4948687974398146 0.8348611944056792 0.5011919478539215 Ti
  atom_frac 0.3311058749267839 0.6590900963685731 0.3304127988195738 Ti
  atom_frac 0.3980412479048335 0.9352144221799027 0.5003341302976326 O
  atom_frac 0.6031663356839989 0.7326130504791023 0.5005050272187589 O
  atom_frac 0.4355342509846350 0.7680093437038544 0.3348158479825559 O
  atom_frac 0.5651815841239941 0.8971499967147706 0.3337665933550734 O
  atom_frac 0.5070613002048139 0.8357990285989499 0.8351985298410306 Ti
  atom_frac 0.3408733805136370 0.6644074933357869 0.6663167219051144 Ti
  atom_frac 0.3986649208095818 0.9354194146572529 0.8333751282611741 O
  atom_frac 0.6025304379694638 0.7318093341671226 0.8346626213291334 O
  atom_frac 0.4362539029687308 0.7677546644852846 0.6666280049850466 O
  atom_frac 0.5650112473430564 0.8981284139410121 0.6670857418573728 O
  atom_frac 0.8330930891339419 0.1601418439972837 0.1671497600211832 Ti
  atom_frac 0.6642161025584484 0.0053491903075214 0.0021828849041853 Ti
  atom_frac 0.7299231776462674 0.2694005436874389 0.1668792358573125 O
  atom_frac 0.9346716136548194 0.0648234958776492 0.1665932767885998 O
  atom_frac 0.7679593847637490 0.1025762431849731 0.0003201376286243 O
  atom_frac 0.8977115850422915 0.2315933612295614 0.0006995058596846 O
  atom_frac 0.8249182622878933 0.1707254137792900 0.5004619780626738 Ti
  atom_frac 0.6641687812598884 -0.0064527435871887 0.3325499690521816 Ti
  atom_frac 0.7293563025971217 0.2696840625833624 0.4998192316805596 O
  atom_frac 0.9360337347772878 0.0647826826315814 0.5004904269495829 O
  atom_frac 0.7681155530668304 0.1025471832607978 0.3341595806713764 O
  atom_frac 0.8971945699511034 0.2315342613085724 0.3339174941694371 O
  atom_frac 0.8389770385621509 0.1702967953285216 0.8326214182269442 Ti
  atom_frac 0.6708669464937159 -0.0002063546612873 0.6700410665453602 Ti
  atom_frac 0.7311088713649829 0.2699244342413795 0.8330245536602380 O
  atom_frac 0.9357003562347775 0.0655825212588451 0.8341886735895786 O
  atom_frac 0.7683538406539193 0.1024656049882276 0.6671895614373595 O
  atom_frac 0.8969565627616400 0.2323639140146306 0.6664633651546762 O
  atom_frac 0.8350486764537848 0.4928296911484236 0.1660466252296735 Ti
  atom_frac 0.6717955658449050 0.3301638946279976 -0.0000431667004072 Ti
  atom_frac 0.7290888324775762 0.6008054273144076 0.1699911571811588 O
  atom_frac 0.9348250293119141 0.3977250965927170 0.1675549921949487 O
  atom_frac 0.7683877849359921 0.4354571608687324 0.0001374674561631 O
  atom_frac 0.8973440865188639 0.5648103389569769 0.0019618724935743 O
  atom_frac 0.8272097412336269 0.5004888232008985 0.4998404485104077 Ti
  atom_frac 0.6588418086766117 0.3327763178475192 0.3300174049243332 Ti
  atom_frac 0.7323713675264012 0.6034196747671196 0.5005939481303365 O
  atom_frac 0.9347471782470788 0.3982615576185945 0.4999892504838317 O
  atom_frac 0.7677406041080790 0.4355249174588995 0.3347481176661232 O
  atom_frac 0.8973162349986135 0.5650093267507157 0.3336994004434544 O
  atom_frac 0.8361282352925400 0.5068525019807687 0.8355017514998230 Ti
  atom_frac 0.6647871722063692 0.3400942483061010 0.6671049641485683 Ti
  atom_frac 0.7317897323691007 0.6024381030780076 0.8348007513662774 O
  atom_frac 0.9354854511916336 0.3986457958465041 0.8340841096276684 O
  atom_frac 0.7675672542718588 0.4363212329367623 0.6666184241715019 O
  atom_frac 0.8981943613592360 0.5650783879107680 0.6671470851222411 O
  atom_frac 0.8374971254045326 0.8379632783713639 0.1635461083414614 Ti
  atom_frac 0.6641371225635455 0.6567106381409017 0.0048793855611089 Ti
  atom_frac 0.7321784644045904 0.9359228344987747 0.1675871388366796 O
  atom_frac 0.9361277079387911 0.7322222884768950 0.1677156475903674 O
  atom_frac 0.7692615231166013 0.7688752387324379 0.0030146438283726 O
  atom_frac 0.8984088524243241 0.8983462540224082 -0.0003292387033578 O
  atom_frac 0.8400055188487499 0.8381869415255583 0.5048184759643778 Ti
  atom_frac 0.6763264126700652 0.6770228698894919 0.3347055336317160 Ti
  atom_frac 0.7323779998919354 0.9356191899174902 0.5008625065762017 O
  atom_frac 0.9356317320297657 0.7322195530574561 0.5007575851819021 O
  atom_frac 0.7701004570822382 0.7702183187588838 0.3340004724758653 O
  atom_frac 0.8990723003537958 0.8990690496110690 0.3339548735465690 O
  atom_frac 0.8266532197613152 0.8277487796349020 0.8369986712452842 Ti
  atom_frac 0.6625915610075173 0.6695658804461579 0.6658549319739646 Ti
  atom_frac 0.7311088764468876 0.9349812899673768 0.8338436331131608 O
  atom_frac 0.9350853102167613 0.7309705653652306 0.8339782645593807 O
  atom_frac 0.7692529125234585 0.7694786219679075 0.6666404426802304 O
  atom_frac 0.8988967924362291 0.8986313809855450 0.6683653551896315 O
  
  -----------------------------------------------------------------------
  Completed first pass over input file geometry.in .
  -----------------------------------------------------------------------
  

  Basic array size parameters:
  | Number of species                 :        3
  | Number of atoms                   :      162
  | Number of lattice vectors         :        3
  | Max. basis fn. angular momentum   :        3
  | Max. atomic/ionic basis occupied n:        4
  | Max. number of basis fn. types    :        3
  | Max. radial fns per species/type  :        7
  | Max. logarithmic grid size        :     1394
  | Max. radial integration grid size :       50
  | Max. angular integration grid size:      302
  | Max. angular grid division number :        8
  | Radial grid for Hartree potential :     1394
  | Number of spin channels           :        1
  | Max. number of (n,l) shells per species with '+U' treatment:        1

------------------------------------------------------------
          Reading file control.in.
------------------------------------------------------------
  Spin treatment: No spin polarisation.
  Scalar relativistic treatment of kinetic energy: on-site free-atom approximation to ZORA.
  Forces will be computed.
  XC: Using LibXC. Please refer to LibXC output for further details.
  Using libxc - Initializing
  Libxc version: 6.1.0


  ** PLEASE ** be careful using LibXC. Whilst most of the LDA, GGA and MGGA functionals,
  and hybrid variations therein, should be stable (though we always recommend testing!),
  there are several fancy functionals with e.g. range-separation, like HSE03/HSE06/LC-PBEh,
  and also MGGA functionals that depend on the laplacian of the density, like BR89,
  that are not fully implemented due to the infrastrucutre for these functionals being incomplete or non-generic.
  If you want to use these functionals please contact the development team and we will work on them with you!

  You have selected libxc functional MGGA_X_MBEEF (249)
    - Description: mBEEF exchange
    - Type: MGGA(Exchange)
    - Reference to Literature:
      [1] J. Wellendorff, K. T. Lundgaard, K. W. Jacobsen, and T. Bligaard.,  J. Chem. Phys. 140, 144107 (2014)

  You have selected libxc functional GGA_C_PBE_SOL (133)
    - Description: Perdew, Burke & Ernzerhof SOL
    - Type: GGA(Correlation)
    - Reference to Literature:
      [1] J. P. Perdew, A. Ruzsinszky, G. I. Csonka, O. A. Vydrov, G. E. Scuseria, L. A. Constantin, X. Zhou, and K. Burke.,  Phys. Rev. Lett. 100, 136406 (2008)

  Switching on meta-ggas
  Found k-point grid:         2         2         3
  Occupation type: Gaussian broadening, width =   0.100000E+00 eV.
  Fixing petukhov mixing factor to   1.000000000000
  hydrogenic basis funktions also used for DFT+U reference states
  Reading DFT+U occupation matrix, from file
  Reading DFT+U occupation matrix, from file
  DFT+U occupation matrix, is again calculated if total energy is converged within   0.001000000000
  Calculating density of states with
  | energy interval :-18.000000  0.000000
  | points & broadening :   200  0.100000
  Calculating atom-projected density of states with
  | energy interval :-18.000000  0.000000
  | points & broadening :   200  0.100000
  Charge density mixing - mixing parameter:     0.0500
  Pulay mixing - number of memorized iterations:   16
  Convergence accuracy of total energy:  0.1000E-05
  Convergence accuracy of sum of eigenvalues:  0.1000E-02
  Convergence accuracy of self-consistent charge density:  0.1000E-05
  Convergence accuracy of forces:  0.1000E-03
 
  Reading configuration options for species Ti                  .
  | Found nuclear charge :  22.0000
  | Found atomic mass :    47.8670000000000      amu
  | Found l_max for Hartree potential  :   4
  | Found cutoff potl. onset [A], width [A], scale factor :    3.50000    1.50000    1.00000
  | Threshold for basis-dependent cutoff potential is   0.100000E-03
  | Found data for basic radial integration grid :    48 points, outermost radius =    5.000 A
  | Found multiplier for basic radial grid :   1
  | Found angular grid specification: user-specified.
  | Specified grid contains     5 separate shells.
  | Check grid settings after all constraints further below.
  | Found free-atom valence shell :  4 s   2.000
  | Found free-atom valence shell :  3 p   6.000
  | Found free-atom valence shell :  3 d   2.000
  | Found free-ion valence shell :  4 s   1.000
  | Found free-ion valence shell :  3 p   6.000
  | Found free-ion valence shell :  3 d   1.000
  | Found hydrogenic basis function :  4 f   8.000
  | Found hydrogenic basis function :  3 d   2.700
  | Found ionic basis function :  4 p , default cutoff radius.
  | Found ionic basis function :  4 s , default cutoff radius.
  | Found request for '+U' treatment for  3 d shell, U =     2.575000 eV.
  | Found coefficents for linear combination of hubbard projectors 
  Species Ti                  : Missing cutoff potential type.
  Defaulting to exp(1/x)/(1-x)^2 type cutoff potential.
  Species Ti: No 'logarithmic' tag. Using default grid for free atom:
  | Default logarithmic grid data [bohr] : 0.1000E-03 0.1000E+03 0.1012E+01
  | Will include ionic basis functions of  2.0-fold positive Ti                   ion.
  Species Ti: On-site basis accuracy parameter (for Gram-Schmidt orthonormalisation) not specified.
  Using default value basis_acc =  0.1000000E-03.
  Species Ti                  : Using default innermost maximum threshold i_radial=  2 for radial functions.
  Species Ti                  : Default cutoff onset for free atom density etc. : 0.35000000E+01 AA.
  Species Ti                  : Basic radial grid will be enhanced according to radial_multiplier =   1, to contain    48 grid points.
 
  Reading configuration options for species O                   .
  | Found nuclear charge :   8.0000
  | Found atomic mass :    15.9994000000000      amu
  | Found l_max for Hartree potential  :   4
  | Found cutoff potl. onset [A], width [A], scale factor :    3.50000    1.50000    1.00000
  | Threshold for basis-dependent cutoff potential is   0.100000E-03
  | Found data for basic radial integration grid :    36 points, outermost radius =    5.000 A
  | Found multiplier for basic radial grid :   1
  | Found angular grid specification: user-specified.
  | Specified grid contains     5 separate shells.
  | Check grid settings after all constraints further below.
  | Found free-atom valence shell :  2 s   2.000
  | Found free-atom valence shell :  2 p   4.000
  | Found free-ion valence shell :  2 s   1.000
  | Found free-ion valence shell :  2 p   3.000
  | Found hydrogenic basis function :  2 p   1.800
  | Found hydrogenic basis function :  3 d   7.600
  | Found hydrogenic basis function :  3 s   6.400
  Species O                   : Missing cutoff potential type.
  Defaulting to exp(1/x)/(1-x)^2 type cutoff potential.
  Species O : No 'logarithmic' tag. Using default grid for free atom:
  | Default logarithmic grid data [bohr] : 0.1000E-03 0.1000E+03 0.1012E+01
  Species O : On-site basis accuracy parameter (for Gram-Schmidt orthonormalisation) not specified.
  Using default value basis_acc =  0.1000000E-03.
  Species O                   : Using default innermost maximum threshold i_radial=  2 for radial functions.
  Species O                   : Default cutoff onset for free atom density etc. : 0.35000000E+01 AA.
  Species O                   : Basic radial grid will be enhanced according to radial_multiplier =   1, to contain    36 grid points.
 
  Reading configuration options for species Mn                  .
  | Found nuclear charge :  25.0000
  | Found atomic mass :    54.9380450000000      amu
  | Found l_max for Hartree potential  :   4
  | Found cutoff potl. onset [A], width [A], scale factor :    3.50000    1.50000    1.00000
  | Threshold for basis-dependent cutoff potential is   0.100000E-03
  | Found data for basic radial integration grid :    50 points, outermost radius =    5.000 A
  | Found multiplier for basic radial grid :   1
  | Found angular grid specification: user-specified.
  | Specified grid contains     5 separate shells.
  | Check grid settings after all constraints further below.
  | Found free-atom valence shell :  4 s   2.000
  | Found free-atom valence shell :  3 p   6.000
  | Found free-atom valence shell :  3 d   5.000
  | Found free-ion valence shell :  4 s   1.000
  | Found free-ion valence shell :  3 p   6.000
  | Found free-ion valence shell :  3 d   4.000
  | Found hydrogenic basis function :  4 f   9.600
  | Found hydrogenic basis function :  3 d   3.200
  | Found hydrogenic basis function :  2 p   2.000
  | Found hydrogenic basis function :  3 s   3.300
  | Found request for '+U' treatment for  3 d shell, U =     0.000000 eV.
  | Found coefficents for linear combination of hubbard projectors 
  Species Mn                  : Missing cutoff potential type.
  Defaulting to exp(1/x)/(1-x)^2 type cutoff potential.
  Species Mn: No 'logarithmic' tag. Using default grid for free atom:
  | Default logarithmic grid data [bohr] : 0.1000E-03 0.1000E+03 0.1012E+01
  Species Mn: On-site basis accuracy parameter (for Gram-Schmidt orthonormalisation) not specified.
  Using default value basis_acc =  0.1000000E-03.
  Species Mn                  : Using default innermost maximum threshold i_radial=  2 for radial functions.
  Species Mn                  : Default cutoff onset for free atom density etc. : 0.35000000E+01 AA.
  Species Mn                  : Basic radial grid will be enhanced according to radial_multiplier =   1, to contain    50 grid points.
 
  Finished reading input file 'control.in'.
 
------------------------------------------------------------


------------------------------------------------------------
          Reading geometry description geometry.in.
------------------------------------------------------------
  | The smallest distance between any two atoms is         1.66109120 AA.
  | The first atom of this pair is atom number                     79 .
  | The second atom of this pair is atom number                    84 .
  | Wigner-Seitz cell of the first atom image           0     0     0 .
  | (The Wigner-Seitz cell of the second atom is 0 0 0  by definition.)

  Symmetry information by spglib:
  | Precision set to  0.1E-04
  | Number of Operations  : 1
  | Space group           : 1
  | International         : P1 zE   Sei
  | Schoenflies           : C1^1
  Input structure read successfully.
  The structure contains      162 atoms,  and a total of       2055.000 electrons.

  Input geometry:
  | Unit cell:
  |       13.78710000        0.00000000        0.00000000
  |        0.00000000       13.78710000        0.00000000
  |        0.00000000        0.00000000        8.87670000
  | Atomic structure:
  |       Atom                x [A]            y [A]            z [A]
  |    1: Species Ti            2.33753159        2.22877033        1.50564414
  |    2: Species Ti            0.00671193        0.00141319       -0.03540083
  |    3: Species O             0.88698900        3.69845621        1.48380176
  |    4: Species O             3.70211553        0.88544683        1.48310828
  |    5: Species O             1.40067569        1.39943560        0.00317925
  |    6: Species O             3.18179103        3.18431315       -0.00622063
  |    7: Species Ti            2.31309118        2.43015672        4.45106161
  |    8: Species Ti            0.03052149        0.05505505        3.00612300
  |    9: Species O             0.89110770        3.70907457        4.43840857
  |   10: Species O             3.70652593        0.89138902        4.43904801
  |   11: Species O             1.40832743        1.40746727        2.95484331
  |   12: Species O             3.18573787        3.18675847        2.94921405
  |   13: Species Ti            2.26857887        2.24146247        7.36794019
  |   14: Species Ti            0.01206687       -0.00822991        5.87723833
  |   15: Species O             0.88323539        3.69621390        7.39644722
  |   16: Species O             3.69820261        0.88426573        7.40152287
  |   17: Species O             1.41058456        1.40887616        5.91429167
  |   18: Species O             3.18727249        3.19058064        5.92574677
  |   19: Species Ti            2.26894578        6.80552698        1.48060203
  |   20: Species Ti            0.07208929        4.54042550       -0.00867162
  |   21: Species O             0.88163893        8.29112787        1.48648838
  |   22: Species O             3.69388919        5.48283546        1.46437226
  |   23: Species O             1.41029546        5.99065226       -0.00336346
  |   24: Species O             3.18906291        7.78708367        0.00113897
  |   25: Species Ti            2.22682887        6.91508299        4.44281189
  |   26: Species Ti           -0.05705086        4.52631907        2.96297691
  |   27: Species O             0.88975571        8.29612429        4.44047857
  |   28: Species O             3.70371770        5.48140056        4.43266130
  |   29: Species O             1.40154871        5.99768527        2.96105903
  |   30: Species O             3.19008530        7.77108230        2.95538244
  |   31: Species Ti            2.37472897        6.94554396        7.39525795
  |   32: Species Ti           -0.03995651        4.70367756        5.93124859
  |   33: Species O             0.89494349        8.30373081        7.40184696
  |   34: Species O             3.71030470        5.49620599        7.38480493
  |   35: Species O             1.39987632        6.00823692        5.91833413
  |   36: Species O             3.19370788        7.78099850        5.91322468
  |   37: Species Ti            2.21535680       11.51369837        1.49198713
  |   38: Species Ti            0.07274007        9.21325375        0.01847908
  |   39: Species O             0.89848978       12.89020741        1.47654384
  |   40: Species O             3.71519469       10.06169140        1.48040599
  |   41: Species O             1.41339536       10.59042364        0.00571360
  |   42: Species O             3.20548562       12.36990533        0.00630022
  |   43: Species Ti            2.33305820       11.36792754        4.44670205
  |   44: Species Ti           -0.07222393        9.13819059        2.95092267
  |   45: Species O             0.89060909       12.89999729        4.44023511
  |   46: Species O             3.71961843       10.05615192        4.43628981
  |   47: Species O             1.41652900       10.58993131        2.96369049
  |   48: Species O             3.19345831       12.37149214        2.96283306
  |   49: Species Ti            2.37250311       11.55538036        7.38035441
  |   50: Species Ti           -0.01061311        9.21919884        5.95162424
  |   51: Species O             0.90622811       12.90085706        7.40573995
  |   52: Species O             3.72140803       10.08030412        7.39499513
  |   53: Species O             1.41536470       10.59136144        5.92419274
  |   54: Species O             3.19691774       12.37239503        5.91504720
  |   55: Species Ti            6.79449011        2.28755525        1.48358751
  |   56: Species Ti            4.68034070       -0.06090275       -0.00266886
  |   57: Species O             5.47805022        3.69341352        1.46395454
  |   58: Species O             8.29364115        0.88225415        1.48874171
  |   59: Species O             5.99974045        1.40273048       -0.00360086
  |   60: Species O             7.78419657        3.19177922        0.00219565
  |   61: Species Ti            6.93897284        2.21978462        4.43718243
  |   62: Species Ti            4.52202419       -0.04387821        2.97726779
  |   63: Species O             5.48128841        3.71029775        4.43272620
  |   64: Species O             8.29522499        0.88753582        4.44166481
  |   65: Species O             5.99675912        1.40389675        2.96218727
  |   66: Species O             7.77032892        3.19128120        2.95619647
  |   67: Species Ti            6.93436146        2.38933727        7.40092872
  |   68: Species Ti            4.59824020        0.08997851        5.92479547
  |   69: Species O             5.49426991        3.71468493        7.38600231
  |   70: Species O             8.30333009        0.89600031        7.40001999
  |   71: Species O             5.99823150        1.40992762        5.91837747
  |   72: Species O             7.78213336        3.19378134        5.91355304
  |   73: Species Ti            6.76865663        6.77783846        1.36776245
  |   74: Species Ti            4.49786950        4.52567764       -0.03302543
  |   75: Species O             5.50824719        8.28608047        1.48144625
  |   76: Species O             8.28478482        5.50745272        1.48197204
  |   77: Species O             5.98450246        5.98773190       -0.03821877
  |   78: Species O             7.77722060        7.76839499       -0.01684535
  |   79: Species Mn            6.96307065        6.96177313        4.32938312
  |   80: Species Ti            4.64853784        4.64633942        2.97923738
  |   81: Species O             5.51292020        8.25541659        4.43324770
  |   82: Species O             8.25602895        5.51436858        4.43379519
  |   83: Species O             5.99185922        5.99059517        2.92818158
  |   84: Species O             7.75415195        7.75729291        3.10440858
  |   85: Species Ti            6.91461919        6.91198423        7.26452333
  |   86: Species Ti            4.65917713        4.64988324        5.86546368
  |   87: Species O             5.49490536        8.28061190        7.38456055
  |   88: Species O             8.28076865        5.49323820        7.38442849
  |   89: Species O             6.02894488        6.02901821        5.83350394
  |   90: Species O             7.80878222        7.81362816        5.89340928
  |   91: Species Ti            6.86754357       11.40415714        1.48851080
  |   92: Species Ti            4.54829040        9.25204117        0.00251495
  |   93: Species O             5.49088963       12.88495652        1.48691223
  |   94: Species O             8.28465430       10.05370487        1.50138468
  |   95: Species O             6.00670246       10.59121828        0.00147515
  |   96: Species O             7.78987651       12.37494617        0.01386945
  |   97: Species Ti            6.82280560       11.51031477        4.44893056
  |   98: Species Ti            4.56498981        9.08694107        2.93297529
  |   99: Species O             5.48783449       12.89389476        4.44131597
  |  100: Species O             8.31591459       10.10060939        4.44283298
  |  101: Species O             6.00475427       10.58862162        2.97205984
  |  102: Species O             7.79221502       12.36909672        2.96274592
  |  103: Species Ti            6.99090485       11.52324479        7.41380679
  |  104: Species Ti            4.69965538        9.16025255        5.91469365
  |  105: Species O             5.49643313       12.89672101        7.39762100
  |  106: Species O             8.30714740       10.08952847        7.40904969
  |  107: Species O             6.01467619       10.58511033        5.91745681
  |  108: Species O             7.78986657       12.38258626        5.92152000
  |  109: Species Ti           11.48593773        2.20789162        1.48373827
  |  110: Species Ti            9.15761383        0.07374982        0.01937681
  |  111: Species O            10.06352384        3.71425224        1.48133691
  |  112: Species O            12.88641100        0.89372802        1.47879854
  |  113: Species O            10.58793283        1.41422892        0.00284177
  |  114: Species O            12.37683939        3.19300083        0.00620930
  |  115: Species Ti           11.37323057        2.35380835        4.44245084
  |  116: Species Ti            9.15696140       -0.08896462        2.95194631
  |  117: Species O            10.05570828        3.71816114        4.43674537
  |  118: Species O            12.90519070        0.89316532        4.44270337
  |  119: Species O            10.59008594        1.41382827        2.96623435
  |  120: Species O            12.36971126        3.19218601        2.96408542
  |  121: Species Ti           11.56706033        2.34789895        7.39093054
  |  122: Species Ti            9.24930968       -0.00284503        5.94775354
  |  123: Species O            10.07987112        3.72147517        7.39450906
  |  124: Species O            12.90059438        0.90419278        7.40484260
  |  125: Species O            10.59337124        1.41270354        5.92244158
  |  126: Species O            12.36642983        3.20362452        5.91599535
  |  127: Species Ti           11.51289961        6.79469223        1.47394608
  |  128: Species Ti            9.26211265        4.55200263       -0.00038318
  |  129: Species O            10.05202064        8.28336451        1.50896050
  |  130: Species O            12.88852616        5.48347568        1.48733540
  |  131: Species O            10.59383923        6.00369142        0.00122026
  |  132: Species O            12.37177266        7.78709662        0.01741495
  |  133: Species Ti           11.40482342        6.90028945        4.43693371
  |  134: Species Ti            9.08351790        4.58802037        2.92946550
  |  135: Species O            10.09727728        8.31940740        4.44362230
  |  136: Species O            12.88745282        5.49087192        4.43825458
  |  137: Species O            10.58491648        6.00462559        2.97145862
  |  138: Species O            12.37138866        7.78984009        2.96214947
  |  139: Species Ti           11.52778359        6.98802613        7.41649840
  |  140: Species Ti            9.16548722        4.68891341        5.92169064
  |  141: Species O            10.08925822        8.30587437        7.41027583
  |  142: Species O            12.89763146        5.49616945        7.40391442
  |  143: Species O            10.58252649        6.01560447        5.91737177
  |  144: Species O            12.38349548        7.79079224        5.92206453
  |  145: Species Ti           11.54665662       11.55308352        1.45174974
  |  146: Species Ti            9.15652492        9.05413524        0.04331284
  |  147: Species O            10.09461771       12.90366171        1.48762076
  |  148: Species O            12.90648632       10.09522191        1.48876149
  |  149: Species O            10.60588555       10.60055980        0.02676009
  |  150: Species O            12.38645269       12.38558964       -0.00292255
  |  151: Species Ti           11.58124009       11.55616718        4.48112217
  |  152: Species Ti            9.32457988        9.33418201        2.97108061
  |  153: Species O            10.09736872       12.89947533        4.44600621
  |  154: Species O            12.89964825       10.09518420        4.44507486
  |  155: Species O            10.61745201       10.61907698        2.96482199
  |  156: Species O            12.39559971       12.39555489        2.96441723
  |  157: Species Ti           11.39715061       11.41225520        7.42978611
  |  158: Species Ti            9.13521611        9.23137175        5.91059447
  |  159: Species O            10.07987119       12.89068054        7.40177978
  |  160: Species O            12.89211468       10.07796428        7.40297486
  |  161: Species O            10.60576683       10.60887871        5.91756722
  |  162: Species O            12.39317997       12.38952071        5.93287875

  Lattice parameters for 3D lattice (in Angstroms) :    13.787100   13.787100    8.876700
  Angle(s) between unit vectors (in degrees)       :    90.000000   90.000000   90.000000


  Quantities derived from the lattice vectors (in Angstrom^-1):
  | Reciprocal lattice vector 1:  0.455729  0.000000  0.000000
  | Reciprocal lattice vector 2:  0.000000  0.455729  0.000000
  | Reciprocal lattice vector 3:  0.000000  0.000000  0.707829
  | Unit cell volume                               :   0.168732E+04  Angstrom^3

  Fractional coordinates:
                         L1                L2                L3
       atom_frac         0.16954483        0.16165621        0.16961755  Ti
       atom_frac         0.00048683        0.00010250       -0.00398806  Ti
       atom_frac         0.06433470        0.26825483        0.16715691  O
       atom_frac         0.26852025        0.06422285        0.16707879  O
       atom_frac         0.10159321        0.10150326        0.00035816  O
       atom_frac         0.23078030        0.23096323       -0.00070078  O
       atom_frac         0.16777213        0.17626308        0.50143202  Ti
       atom_frac         0.00221377        0.00399323        0.33865322  Ti
       atom_frac         0.06463344        0.26902500        0.50000660  O
       atom_frac         0.26884014        0.06465384        0.50007863  O
       atom_frac         0.10214820        0.10208581        0.33287633  O
       atom_frac         0.23106657        0.23114059        0.33224217  O
       atom_frac         0.16454359        0.16257679        0.83003145  Ti
       atom_frac         0.00087523       -0.00059693        0.66209721  Ti
       atom_frac         0.06406245        0.26809220        0.83324290  O
       atom_frac         0.26823644        0.06413718        0.83381469  O
       atom_frac         0.10231191        0.10218800        0.66627144  O
       atom_frac         0.23117788        0.23141782        0.66756191  O
       atom_frac         0.16457020        0.49361555        0.16679645  Ti
       atom_frac         0.00522875        0.32932419       -0.00097690  Ti
       atom_frac         0.06394665        0.60136852        0.16745957  O
       atom_frac         0.26792358        0.39767866        0.16496809  O
       atom_frac         0.10229094        0.43451141       -0.00037891  O
       atom_frac         0.23130774        0.56480940        0.00012831  O
       atom_frac         0.16151539        0.50156182        0.50050265  Ti
       atom_frac        -0.00413799        0.32830103        0.33379262  Ti
       atom_frac         0.06453538        0.60173091        0.50023979  O
       atom_frac         0.26863646        0.39757459        0.49935914  O
       atom_frac         0.10165653        0.43502153        0.33357656  O
       atom_frac         0.23138189        0.56364879        0.33293706  O
       atom_frac         0.17224282        0.50377120        0.83310892  Ti
       atom_frac        -0.00289811        0.34116512        0.66818171  Ti
       atom_frac         0.06491166        0.60228263        0.83385120  O
       atom_frac         0.26911422        0.39864845        0.83193134  O
       atom_frac         0.10153523        0.43578685        0.66672684  O
       atom_frac         0.23164464        0.56436803        0.66615124  O
       atom_frac         0.16068331        0.83510661        0.16807903  Ti
       atom_frac         0.00527595        0.66825175        0.00208175  Ti
       atom_frac         0.06516887        0.93494697        0.16633927  O
       atom_frac         0.26946890        0.72979027        0.16677436  O
       atom_frac         0.10251578        0.76814005        0.00064366  O
       atom_frac         0.23249890        0.89720865        0.00070975  O
       atom_frac         0.16922037        0.82453362        0.50094090  Ti
       atom_frac        -0.00523851        0.66280730        0.33243465  Ti
       atom_frac         0.06459727        0.93565705        0.50021237  O
       atom_frac         0.26978976        0.72938848        0.49976791  O
       atom_frac         0.10274307        0.76810434        0.33387300  O
       atom_frac         0.23162654        0.89732374        0.33377641  O
       atom_frac         0.17208137        0.83812987        0.83142997  Ti
       atom_frac        -0.00076979        0.66868296        0.67047712  Ti
       atom_frac         0.06573015        0.93571941        0.83428976  O
       atom_frac         0.26991956        0.73114028        0.83307931  O
       atom_frac         0.10265862        0.76820807        0.66738684  O
       atom_frac         0.23187746        0.89738923        0.66635655  O
       atom_frac         0.49281503        0.16591997        0.16713278  Ti
       atom_frac         0.33947246       -0.00441737       -0.00030066  Ti
       atom_frac         0.39733158        0.26788908        0.16492103  O
       atom_frac         0.60155081        0.06399128        0.16771342  O
       atom_frac         0.43517059        0.10174224       -0.00040565  O
       atom_frac         0.56459999        0.23150476        0.00024735  O
       atom_frac         0.50329459        0.16100446        0.49986847  Ti
       atom_frac         0.32798951       -0.00318256        0.33540255  Ti
       atom_frac         0.39756645        0.26911372        0.49936645  O
       atom_frac         0.60166569        0.06437437        0.50037343  O
       atom_frac         0.43495435        0.10182683        0.33370366  O
       atom_frac         0.56359415        0.23146863        0.33302877  O
       atom_frac         0.50296012        0.17330238        0.83374776  Ti
       atom_frac         0.33351758        0.00652628        0.66745474  Ti
       atom_frac         0.39850802        0.26943193        0.83206623  O
       atom_frac         0.60225356        0.06498831        0.83364539  O
       atom_frac         0.43506114        0.10226426        0.66673172  O
       atom_frac         0.56445035        0.23164997        0.66618823  O
       atom_frac         0.49094129        0.49160726        0.15408456  Ti
       atom_frac         0.32623753        0.32825450       -0.00372046  Ti
       atom_frac         0.39952181        0.60100242        0.16689155  O
       atom_frac         0.60090844        0.39946419        0.16695079  O
       atom_frac         0.43406536        0.43429959       -0.00430552  O
       atom_frac         0.56409402        0.56345388       -0.00189770  O
       atom_frac         0.50504244        0.50494833        0.48772439  Mn
       atom_frac         0.33716574        0.33700629        0.33562443  Ti
       atom_frac         0.39986075        0.59877832        0.49942520  O
       atom_frac         0.59882274        0.39996581        0.49948688  O
       atom_frac         0.43459895        0.43450727        0.32987277  O
       atom_frac         0.56242081        0.56264863        0.34972553  O
       atom_frac         0.50152818        0.50133706        0.81838108  Ti
       atom_frac         0.33793743        0.33726333        0.66077075  Ti
       atom_frac         0.39855411        0.60060578        0.83190381  O
       atom_frac         0.60061715        0.39843319        0.83188893  O
       atom_frac         0.43728883        0.43729415        0.65717034  O
       atom_frac         0.56638323        0.56673471        0.66391894  O
       atom_frac         0.49811371        0.82716141        0.16768741  Ti
       atom_frac         0.32989464        0.67106507        0.00028332  Ti
       atom_frac         0.39826284        0.93456612        0.16750732  O
       atom_frac         0.60089898        0.72921099        0.16913771  O
       atom_frac         0.43567556        0.76819768        0.00016618  O
       atom_frac         0.56501197        0.89757427        0.00156246  O
       atom_frac         0.49486880        0.83486119        0.50119195  Ti
       atom_frac         0.33110587        0.65909010        0.33041280  Ti
       atom_frac         0.39804125        0.93521442        0.50033413  O
       atom_frac         0.60316634        0.73261305        0.50050503  O
       atom_frac         0.43553425        0.76800934        0.33481585  O
       atom_frac         0.56518158        0.89715000        0.33376659  O
       atom_frac         0.50706130        0.83579903        0.83519853  Ti
       atom_frac         0.34087338        0.66440749        0.66631672  Ti
       atom_frac         0.39866492        0.93541941        0.83337513  O
       atom_frac         0.60253044        0.73180933        0.83466262  O
       atom_frac         0.43625390        0.76775466        0.66662800  O
       atom_frac         0.56501125        0.89812841        0.66708574  O
       atom_frac         0.83309309        0.16014184        0.16714976  Ti
       atom_frac         0.66421610        0.00534919        0.00218288  Ti
       atom_frac         0.72992318        0.26940054        0.16687924  O
       atom_frac         0.93467161        0.06482350        0.16659328  O
       atom_frac         0.76795938        0.10257624        0.00032014  O
       atom_frac         0.89771159        0.23159336        0.00069951  O
       atom_frac         0.82491826        0.17072541        0.50046198  Ti
       atom_frac         0.66416878       -0.00645274        0.33254997  Ti
       atom_frac         0.72935630        0.26968406        0.49981923  O
       atom_frac         0.93603373        0.06478268        0.50049043  O
       atom_frac         0.76811555        0.10254718        0.33415958  O
       atom_frac         0.89719457        0.23153426        0.33391749  O
       atom_frac         0.83897704        0.17029680        0.83262142  Ti
       atom_frac         0.67086695       -0.00020635        0.67004107  Ti
       atom_frac         0.73110887        0.26992443        0.83302455  O
       atom_frac         0.93570036        0.06558252        0.83418867  O
       atom_frac         0.76835384        0.10246560        0.66718956  O
       atom_frac         0.89695656        0.23236391        0.66646337  O
       atom_frac         0.83504868        0.49282969        0.16604663  Ti
       atom_frac         0.67179557        0.33016389       -0.00004317  Ti
       atom_frac         0.72908883        0.60080543        0.16999116  O
       atom_frac         0.93482503        0.39772510        0.16755499  O
       atom_frac         0.76838778        0.43545716        0.00013747  O
       atom_frac         0.89734409        0.56481034        0.00196187  O
       atom_frac         0.82720974        0.50048882        0.49984045  Ti
       atom_frac         0.65884181        0.33277632        0.33001740  Ti
       atom_frac         0.73237137        0.60341967        0.50059395  O
       atom_frac         0.93474718        0.39826156        0.49998925  O
       atom_frac         0.76774060        0.43552492        0.33474812  O
       atom_frac         0.89731623        0.56500933        0.33369940  O
       atom_frac         0.83612824        0.50685250        0.83550175  Ti
       atom_frac         0.66478717        0.34009425        0.66710496  Ti
       atom_frac         0.73178973        0.60243810        0.83480075  O
       atom_frac         0.93548545        0.39864580        0.83408411  O
       atom_frac         0.76756725        0.43632123        0.66661842  O
       atom_frac         0.89819436        0.56507839        0.66714709  O
       atom_frac         0.83749713        0.83796328        0.16354611  Ti
       atom_frac         0.66413712        0.65671064        0.00487939  Ti
       atom_frac         0.73217846        0.93592283        0.16758714  O
       atom_frac         0.93612771        0.73222229        0.16771565  O
       atom_frac         0.76926152        0.76887524        0.00301464  O
       atom_frac         0.89840885        0.89834625       -0.00032924  O
       atom_frac         0.84000552        0.83818694        0.50481848  Ti
       atom_frac         0.67632641        0.67702287        0.33470553  Ti
       atom_frac         0.73237800        0.93561919        0.50086251  O
       atom_frac         0.93563173        0.73221955        0.50075759  O
       atom_frac         0.77010046        0.77021832        0.33400047  O
       atom_frac         0.89907230        0.89906905        0.33395487  O
       atom_frac         0.82665322        0.82774878        0.83699867  Ti
       atom_frac         0.66259156        0.66956588        0.66585493  Ti
       atom_frac         0.73110888        0.93498129        0.83384363  O
       atom_frac         0.93508531        0.73097057        0.83397826  O
       atom_frac         0.76925291        0.76947862        0.66664044  O
       atom_frac         0.89889679        0.89863138        0.66836536  O

 
  Finished reading input file 'geometry.in'.
 

 
  Consistency checks for stacksize environment parameter are next.
 
  | Maximum stacksize for task 0: unlimited
  | Maximum stacksize for task 1: unlimited
  | Maximum stacksize for task 2: unlimited
  | Maximum stacksize for task 3: unlimited
  | Maximum stacksize for task 4: unlimited
  | Maximum stacksize for task 5: unlimited
  | Maximum stacksize for task 6: unlimited
  | Maximum stacksize for task 7: unlimited
  | Maximum stacksize for task 8: unlimited
  | Maximum stacksize for task 9: unlimited
  | Maximum stacksize for task 10: unlimited
  | Maximum stacksize for task 11: unlimited
  | Maximum stacksize for task 12: unlimited
  | Maximum stacksize for task 13: unlimited
  | Maximum stacksize for task 14: unlimited
  | Maximum stacksize for task 15: unlimited
  | Maximum stacksize for task 16: unlimited
  | Maximum stacksize for task 17: unlimited
  | Maximum stacksize for task 18: unlimited
  | Maximum stacksize for task 19: unlimited
  | Maximum stacksize for task 20: unlimited
  | Maximum stacksize for task 21: unlimited
  | Maximum stacksize for task 22: unlimited
  | Maximum stacksize for task 23: unlimited
  | Maximum stacksize for task 24: unlimited
  | Maximum stacksize for task 25: unlimited
  | Maximum stacksize for task 26: unlimited
  | Maximum stacksize for task 27: unlimited
  | Maximum stacksize for task 28: unlimited
  | Maximum stacksize for task 29: unlimited
  | Maximum stacksize for task 30: unlimited
  | Maximum stacksize for task 31: unlimited
  | Maximum stacksize for task 32: unlimited
  | Maximum stacksize for task 33: unlimited
  | Maximum stacksize for task 34: unlimited
  | Maximum stacksize for task 35: unlimited
  | Maximum stacksize for task 36: unlimited
  | Maximum stacksize for task 37: unlimited
  | Maximum stacksize for task 38: unlimited
  | Maximum stacksize for task 39: unlimited
  | Maximum stacksize for task 40: unlimited
  | Maximum stacksize for task 41: unlimited
  | Maximum stacksize for task 42: unlimited
  | Maximum stacksize for task 43: unlimited
  | Maximum stacksize for task 44: unlimited
  | Maximum stacksize for task 45: unlimited
  | Maximum stacksize for task 46: unlimited
  | Maximum stacksize for task 47: unlimited
  | Maximum stacksize for task 48: unlimited
  | Maximum stacksize for task 49: unlimited
  | Maximum stacksize for task 50: unlimited
  | Maximum stacksize for task 51: unlimited
  | Maximum stacksize for task 52: unlimited
  | Maximum stacksize for task 53: unlimited
  | Maximum stacksize for task 54: unlimited
  | Maximum stacksize for task 55: unlimited
  | Maximum stacksize for task 56: unlimited
  | Maximum stacksize for task 57: unlimited
  | Maximum stacksize for task 58: unlimited
  | Maximum stacksize for task 59: unlimited
  | Maximum stacksize for task 60: unlimited
  | Maximum stacksize for task 61: unlimited
  | Maximum stacksize for task 62: unlimited
  | Maximum stacksize for task 63: unlimited
  | Maximum stacksize for task 64: unlimited
  | Maximum stacksize for task 65: unlimited
  | Maximum stacksize for task 66: unlimited
  | Maximum stacksize for task 67: unlimited
  | Maximum stacksize for task 68: unlimited
  | Maximum stacksize for task 69: unlimited
  | Maximum stacksize for task 70: unlimited
  | Maximum stacksize for task 71: unlimited
  | Maximum stacksize for task 72: unlimited
  | Maximum stacksize for task 73: unlimited
  | Maximum stacksize for task 74: unlimited
  | Maximum stacksize for task 75: unlimited
  | Maximum stacksize for task 76: unlimited
  | Maximum stacksize for task 77: unlimited
  | Maximum stacksize for task 78: unlimited
  | Maximum stacksize for task 79: unlimited
  | Maximum stacksize for task 80: unlimited
  | Maximum stacksize for task 81: unlimited
  | Maximum stacksize for task 82: unlimited
  | Maximum stacksize for task 83: unlimited
  | Maximum stacksize for task 84: unlimited
  | Maximum stacksize for task 85: unlimited
  | Maximum stacksize for task 86: unlimited
  | Maximum stacksize for task 87: unlimited
  | Maximum stacksize for task 88: unlimited
  | Maximum stacksize for task 89: unlimited
  | Maximum stacksize for task 90: unlimited
  | Maximum stacksize for task 91: unlimited
  | Maximum stacksize for task 92: unlimited
  | Maximum stacksize for task 93: unlimited
  | Maximum stacksize for task 94: unlimited
  | Maximum stacksize for task 95: unlimited
  | Maximum stacksize for task 96: unlimited
  | Maximum stacksize for task 97: unlimited
  | Maximum stacksize for task 98: unlimited
  | Maximum stacksize for task 99: unlimited
  | Maximum stacksize for task 100: unlimited
  | Maximum stacksize for task 101: unlimited
  | Maximum stacksize for task 102: unlimited
  | Maximum stacksize for task 103: unlimited
  | Maximum stacksize for task 104: unlimited
  | Maximum stacksize for task 105: unlimited
  | Maximum stacksize for task 106: unlimited
  | Maximum stacksize for task 107: unlimited
  | Maximum stacksize for task 108: unlimited
  | Maximum stacksize for task 109: unlimited
  | Maximum stacksize for task 110: unlimited
  | Maximum stacksize for task 111: unlimited
  | Maximum stacksize for task 112: unlimited
  | Maximum stacksize for task 113: unlimited
  | Maximum stacksize for task 114: unlimited
  | Maximum stacksize for task 115: unlimited
  | Maximum stacksize for task 116: unlimited
  | Maximum stacksize for task 117: unlimited
  | Maximum stacksize for task 118: unlimited
  | Maximum stacksize for task 119: unlimited
  | Maximum stacksize for task 120: unlimited
  | Maximum stacksize for task 121: unlimited
  | Maximum stacksize for task 122: unlimited
  | Maximum stacksize for task 123: unlimited
  | Maximum stacksize for task 124: unlimited
  | Maximum stacksize for task 125: unlimited
  | Maximum stacksize for task 126: unlimited
  | Maximum stacksize for task 127: unlimited
  | Maximum stacksize for task 128: unlimited
  | Maximum stacksize for task 129: unlimited
  | Maximum stacksize for task 130: unlimited
  | Maximum stacksize for task 131: unlimited
  | Maximum stacksize for task 132: unlimited
  | Maximum stacksize for task 133: unlimited
  | Maximum stacksize for task 134: unlimited
  | Maximum stacksize for task 135: unlimited
  | Maximum stacksize for task 136: unlimited
  | Maximum stacksize for task 137: unlimited
  | Maximum stacksize for task 138: unlimited
  | Maximum stacksize for task 139: unlimited
  | Maximum stacksize for task 140: unlimited
  | Maximum stacksize for task 141: unlimited
  | Maximum stacksize for task 142: unlimited
  | Maximum stacksize for task 143: unlimited
  | Maximum stacksize for task 144: unlimited
  | Maximum stacksize for task 145: unlimited
  | Maximum stacksize for task 146: unlimited
  | Maximum stacksize for task 147: unlimited
  | Maximum stacksize for task 148: unlimited
  | Maximum stacksize for task 149: unlimited
  | Maximum stacksize for task 150: unlimited
  | Maximum stacksize for task 151: unlimited
  | Maximum stacksize for task 152: unlimited
  | Maximum stacksize for task 153: unlimited
  | Maximum stacksize for task 154: unlimited
  | Maximum stacksize for task 155: unlimited
  | Maximum stacksize for task 156: unlimited
  | Maximum stacksize for task 157: unlimited
  | Maximum stacksize for task 158: unlimited
  | Maximum stacksize for task 159: unlimited
  | Maximum stacksize for task 160: unlimited
  | Maximum stacksize for task 161: unlimited
  | Maximum stacksize for task 162: unlimited
  | Maximum stacksize for task 163: unlimited
  | Maximum stacksize for task 164: unlimited
  | Maximum stacksize for task 165: unlimited
  | Maximum stacksize for task 166: unlimited
  | Maximum stacksize for task 167: unlimited
  | Maximum stacksize for task 168: unlimited
  | Maximum stacksize for task 169: unlimited
  | Maximum stacksize for task 170: unlimited
  | Maximum stacksize for task 171: unlimited
  | Maximum stacksize for task 172: unlimited
  | Maximum stacksize for task 173: unlimited
  | Maximum stacksize for task 174: unlimited
  | Maximum stacksize for task 175: unlimited
  | Maximum stacksize for task 176: unlimited
  | Maximum stacksize for task 177: unlimited
  | Maximum stacksize for task 178: unlimited
  | Maximum stacksize for task 179: unlimited
  | Maximum stacksize for task 180: unlimited
  | Maximum stacksize for task 181: unlimited
  | Maximum stacksize for task 182: unlimited
[...]
  | writing   projected DOS (raw data) for species O to file atom_proj_dos_O0101_raw.dat.
  | writing   projected DOS (shifted by the chemical potential) for species O to file atom_proj_dos_O0102.dat.
  | writing   projected DOS (raw data) for species O to file atom_proj_dos_O0102_raw.dat.
  | writing   projected DOS (shifted by the chemical potential) for species Ti to file atom_proj_dos_Ti0103.dat.
  | writing   projected DOS (raw data) for species Ti to file atom_proj_dos_Ti0103_raw.dat.
  | writing   projected DOS (shifted by the chemical potential) for species Ti to file atom_proj_dos_Ti0104.dat.
  | writing   projected DOS (raw data) for species Ti to file atom_proj_dos_Ti0104_raw.dat.
  | writing   projected DOS (shifted by the chemical potential) for species O to file atom_proj_dos_O0105.dat.
  | writing   projected DOS (raw data) for species O to file atom_proj_dos_O0105_raw.dat.
  | writing   projected DOS (shifted by the chemical potential) for species O to file atom_proj_dos_O0106.dat.
  | writing   projected DOS (raw data) for species O to file atom_proj_dos_O0106_raw.dat.
  | writing   projected DOS (shifted by the chemical potential) for species O to file atom_proj_dos_O0107.dat.
  | writing   projected DOS (raw data) for species O to file atom_proj_dos_O0107_raw.dat.
  | writing   projected DOS (shifted by the chemical potential) for species O to file atom_proj_dos_O0108.dat.
  | writing   projected DOS (raw data) for species O to file atom_proj_dos_O0108_raw.dat.
  | writing   projected DOS (shifted by the chemical potential) for species Ti to file atom_proj_dos_Ti0109.dat.
  | writing   projected DOS (raw data) for species Ti to file atom_proj_dos_Ti0109_raw.dat.
  | writing   projected DOS (shifted by the chemical potential) for species Ti to file atom_proj_dos_Ti0110.dat.
  | writing   projected DOS (raw data) for species Ti to file atom_proj_dos_Ti0110_raw.dat.
  | writing   projected DOS (shifted by the chemical potential) for species O to file atom_proj_dos_O0111.dat.
  | writing   projected DOS (raw data) for species O to file atom_proj_dos_O0111_raw.dat.
  | writing   projected DOS (shifted by the chemical potential) for species O to file atom_proj_dos_O0112.dat.
  | writing   projected DOS (raw data) for species O to file atom_proj_dos_O0112_raw.dat.
  | writing   projected DOS (shifted by the chemical potential) for species O to file atom_proj_dos_O0113.dat.
  | writing   projected DOS (raw data) for species O to file atom_proj_dos_O0113_raw.dat.
  | writing   projected DOS (shifted by the chemical potential) for species O to file atom_proj_dos_O0114.dat.
  | writing   projected DOS (raw data) for species O to file atom_proj_dos_O0114_raw.dat.
  | writing   projected DOS (shifted by the chemical potential) for species Ti to file atom_proj_dos_Ti0115.dat.
  | writing   projected DOS (raw data) for species Ti to file atom_proj_dos_Ti0115_raw.dat.
  | writing   projected DOS (shifted by the chemical potential) for species Ti to file atom_proj_dos_Ti0116.dat.
  | writing   projected DOS (raw data) for species Ti to file atom_proj_dos_Ti0116_raw.dat.
  | writing   projected DOS (shifted by the chemical potential) for species O to file atom_proj_dos_O0117.dat.
  | writing   projected DOS (raw data) for species O to file atom_proj_dos_O0117_raw.dat.
  | writing   projected DOS (shifted by the chemical potential) for species O to file atom_proj_dos_O0118.dat.
  | writing   projected DOS (raw data) for species O to file atom_proj_dos_O0118_raw.dat.
  | writing   projected DOS (shifted by the chemical potential) for species O to file atom_proj_dos_O0119.dat.
  | writing   projected DOS (raw data) for species O to file atom_proj_dos_O0119_raw.dat.
  | writing   projected DOS (shifted by the chemical potential) for species O to file atom_proj_dos_O0120.dat.
  | writing   projected DOS (raw data) for species O to file atom_proj_dos_O0120_raw.dat.
  | writing   projected DOS (shifted by the chemical potential) for species Ti to file atom_proj_dos_Ti0121.dat.
  | writing   projected DOS (raw data) for species Ti to file atom_proj_dos_Ti0121_raw.dat.
  | writing   projected DOS (shifted by the chemical potential) for species Ti to file atom_proj_dos_Ti0122.dat.
  | writing   projected DOS (raw data) for species Ti to file atom_proj_dos_Ti0122_raw.dat.
  | writing   projected DOS (shifted by the chemical potential) for species O to file atom_proj_dos_O0123.dat.
  | writing   projected DOS (raw data) for species O to file atom_proj_dos_O0123_raw.dat.
  | writing   projected DOS (shifted by the chemical potential) for species O to file atom_proj_dos_O0124.dat.
  | writing   projected DOS (raw data) for species O to file atom_proj_dos_O0124_raw.dat.
  | writing   projected DOS (shifted by the chemical potential) for species O to file atom_proj_dos_O0125.dat.
  | writing   projected DOS (raw data) for species O to file atom_proj_dos_O0125_raw.dat.
  | writing   projected DOS (shifted by the chemical potential) for species O to file atom_proj_dos_O0126.dat.
  | writing   projected DOS (raw data) for species O to file atom_proj_dos_O0126_raw.dat.
  | writing   projected DOS (shifted by the chemical potential) for species Ti to file atom_proj_dos_Ti0127.dat.
  | writing   projected DOS (raw data) for species Ti to file atom_proj_dos_Ti0127_raw.dat.
  | writing   projected DOS (shifted by the chemical potential) for species Ti to file atom_proj_dos_Ti0128.dat.
  | writing   projected DOS (raw data) for species Ti to file atom_proj_dos_Ti0128_raw.dat.
  | writing   projected DOS (shifted by the chemical potential) for species O to file atom_proj_dos_O0129.dat.
  | writing   projected DOS (raw data) for species O to file atom_proj_dos_O0129_raw.dat.
  | writing   projected DOS (shifted by the chemical potential) for species O to file atom_proj_dos_O0130.dat.
  | writing   projected DOS (raw data) for species O to file atom_proj_dos_O0130_raw.dat.
  | writing   projected DOS (shifted by the chemical potential) for species O to file atom_proj_dos_O0131.dat.
  | writing   projected DOS (raw data) for species O to file atom_proj_dos_O0131_raw.dat.
  | writing   projected DOS (shifted by the chemical potential) for species O to file atom_proj_dos_O0132.dat.
  | writing   projected DOS (raw data) for species O to file atom_proj_dos_O0132_raw.dat.
  | writing   projected DOS (shifted by the chemical potential) for species Ti to file atom_proj_dos_Ti0133.dat.
  | writing   projected DOS (raw data) for species Ti to file atom_proj_dos_Ti0133_raw.dat.
  | writing   projected DOS (shifted by the chemical potential) for species Ti to file atom_proj_dos_Ti0134.dat.
  | writing   projected DOS (raw data) for species Ti to file atom_proj_dos_Ti0134_raw.dat.
  | writing   projected DOS (shifted by the chemical potential) for species O to file atom_proj_dos_O0135.dat.
  | writing   projected DOS (raw data) for species O to file atom_proj_dos_O0135_raw.dat.
  | writing   projected DOS (shifted by the chemical potential) for species O to file atom_proj_dos_O0136.dat.
  | writing   projected DOS (raw data) for species O to file atom_proj_dos_O0136_raw.dat.
  | writing   projected DOS (shifted by the chemical potential) for species O to file atom_proj_dos_O0137.dat.
  | writing   projected DOS (raw data) for species O to file atom_proj_dos_O0137_raw.dat.
  | writing   projected DOS (shifted by the chemical potential) for species O to file atom_proj_dos_O0138.dat.
  | writing   projected DOS (raw data) for species O to file atom_proj_dos_O0138_raw.dat.
  | writing   projected DOS (shifted by the chemical potential) for species Ti to file atom_proj_dos_Ti0139.dat.
  | writing   projected DOS (raw data) for species Ti to file atom_proj_dos_Ti0139_raw.dat.
  | writing   projected DOS (shifted by the chemical potential) for species Ti to file atom_proj_dos_Ti0140.dat.
  | writing   projected DOS (raw data) for species Ti to file atom_proj_dos_Ti0140_raw.dat.
  | writing   projected DOS (shifted by the chemical potential) for species O to file atom_proj_dos_O0141.dat.
  | writing   projected DOS (raw data) for species O to file atom_proj_dos_O0141_raw.dat.
  | writing   projected DOS (shifted by the chemical potential) for species O to file atom_proj_dos_O0142.dat.
  | writing   projected DOS (raw data) for species O to file atom_proj_dos_O0142_raw.dat.
  | writing   projected DOS (shifted by the chemical potential) for species O to file atom_proj_dos_O0143.dat.
  | writing   projected DOS (raw data) for species O to file atom_proj_dos_O0143_raw.dat.
  | writing   projected DOS (shifted by the chemical potential) for species O to file atom_proj_dos_O0144.dat.
  | writing   projected DOS (raw data) for species O to file atom_proj_dos_O0144_raw.dat.
  | writing   projected DOS (shifted by the chemical potential) for species Ti to file atom_proj_dos_Ti0145.dat.
  | writing   projected DOS (raw data) for species Ti to file atom_proj_dos_Ti0145_raw.dat.
  | writing   projected DOS (shifted by the chemical potential) for species Ti to file atom_proj_dos_Ti0146.dat.
  | writing   projected DOS (raw data) for species Ti to file atom_proj_dos_Ti0146_raw.dat.
  | writing   projected DOS (shifted by the chemical potential) for species O to file atom_proj_dos_O0147.dat.
  | writing   projected DOS (raw data) for species O to file atom_proj_dos_O0147_raw.dat.
  | writing   projected DOS (shifted by the chemical potential) for species O to file atom_proj_dos_O0148.dat.
  | writing   projected DOS (raw data) for species O to file atom_proj_dos_O0148_raw.dat.
  | writing   projected DOS (shifted by the chemical potential) for species O to file atom_proj_dos_O0149.dat.
  | writing   projected DOS (raw data) for species O to file atom_proj_dos_O0149_raw.dat.
  | writing   projected DOS (shifted by the chemical potential) for species O to file atom_proj_dos_O0150.dat.
  | writing   projected DOS (raw data) for species O to file atom_proj_dos_O0150_raw.dat.
  | writing   projected DOS (shifted by the chemical potential) for species Ti to file atom_proj_dos_Ti0151.dat.
  | writing   projected DOS (raw data) for species Ti to file atom_proj_dos_Ti0151_raw.dat.
  | writing   projected DOS (shifted by the chemical potential) for species Ti to file atom_proj_dos_Ti0152.dat.
  | writing   projected DOS (raw data) for species Ti to file atom_proj_dos_Ti0152_raw.dat.
  | writing   projected DOS (shifted by the chemical potential) for species O to file atom_proj_dos_O0153.dat.
  | writing   projected DOS (raw data) for species O to file atom_proj_dos_O0153_raw.dat.
  | writing   projected DOS (shifted by the chemical potential) for species O to file atom_proj_dos_O0154.dat.
  | writing   projected DOS (raw data) for species O to file atom_proj_dos_O0154_raw.dat.
  | writing   projected DOS (shifted by the chemical potential) for species O to file atom_proj_dos_O0155.dat.
  | writing   projected DOS (raw data) for species O to file atom_proj_dos_O0155_raw.dat.
  | writing   projected DOS (shifted by the chemical potential) for species O to file atom_proj_dos_O0156.dat.
  | writing   projected DOS (raw data) for species O to file atom_proj_dos_O0156_raw.dat.
  | writing   projected DOS (shifted by the chemical potential) for species Ti to file atom_proj_dos_Ti0157.dat.
  | writing   projected DOS (raw data) for species Ti to file atom_proj_dos_Ti0157_raw.dat.
  | writing   projected DOS (shifted by the chemical potential) for species Ti to file atom_proj_dos_Ti0158.dat.
  | writing   projected DOS (raw data) for species Ti to file atom_proj_dos_Ti0158_raw.dat.
  | writing   projected DOS (shifted by the chemical potential) for species O to file atom_proj_dos_O0159.dat.
  | writing   projected DOS (raw data) for species O to file atom_proj_dos_O0159_raw.dat.
  | writing   projected DOS (shifted by the chemical potential) for species O to file atom_proj_dos_O0160.dat.
  | writing   projected DOS (raw data) for species O to file atom_proj_dos_O0160_raw.dat.
  | writing   projected DOS (shifted by the chemical potential) for species O to file atom_proj_dos_O0161.dat.
  | writing   projected DOS (raw data) for species O to file atom_proj_dos_O0161_raw.dat.
  | writing   projected DOS (shifted by the chemical potential) for species O to file atom_proj_dos_O0162.dat.
  | writing   projected DOS (raw data) for species O to file atom_proj_dos_O0162_raw.dat.
  Mulliken analysis                                       :  max(cpu_time)    wall_clock(cpu1)
  | Time for Mulliken analysis                            :          0.750               0.970
  | Total time for Mulliken analysis                      :          0.750               0.970
------------------------------------------------------------

------------------------------------------------------------------------------
  Final output of selected total energy values:

  The following output summarizes some interesting total energy values
  at the end of a run (AFTER all relaxation, molecular dynamics, etc.).

  | Total energy of the DFT / Hartree-Fock s.c.f. calculation      :       -1490927.289336041 eV
  | Final zero-broadening corrected energy (caution - metals only) :       -1490927.317278012 eV
  | For reference only, the value of 1 Hartree used in FHI-aims is :             27.211384500 eV
  | For reference only, the overall average (free atom contribution
  | + realspace contribution) of the electrostatic potential after
  | s.c.f. convergence is                                          :            -17.294012150 eV

  Before relying on these values, please be sure to understand exactly which
  total energy value is referred to by a given number. Different objects may
  all carry the same name 'total energy'. Definitions:

  Total energy of the DFT / Hartree-Fock s.c.f. calculation:
  | Note that this energy does not include ANY quantities calculated after the
  | s.c.f. cycle, in particular not ANY RPA, MP2, etc. many-body perturbation terms.

  Final zero-broadening corrected energy:
  | For metallic systems only, a broadening of the occupation numbers at the Fermi
  | level can be extrapolated back to zero broadening by an electron-gas inspired
  | formula. For all systems that are not real metals, this value can be
  | meaningless and should be avoided.

------------------------------------------------------------------------------
  Methods described in the following list of references were used in this FHI-aims run.
  If you publish the results, please make sure to cite these reference if they apply.
  FHI-aims is an academic code, and for our developers (often, Ph.D. students
  and postdocs), scientific credit in the community is essential.
  Thank you for helping us!

  For any use of FHI-aims, please cite:

    Volker Blum, Ralf Gehrke, Felix Hanke, Paula Havu, Ville Havu,
    Xinguo Ren, Karsten Reuter, and Matthias Scheffler
    'Ab initio molecular simulations with numeric atom-centered orbitals'
    Computer Physics Communications 180, 2175-2196 (2009)
    http://doi.org/10.1016/j.cpc.2009.06.022


  The provided symmetry information was generated with SPGlib:

    Atsushi Togo, Yusuke Seto, Dimitar Pashov
    SPGlib 1.7.3 obtained from http://spglib.sourceforge.net
    Copyright (C) 2008 Atsushi Togo


 DFT+U infrastructure was used in your run
 please cite:

 Matthias Kick, Karsten Reuter and Harald Oberhofer,
 Intricacies Of DFT+U, not only in a Numeric Atom Centered Orbital Framework

 Journal of Chemical Theory and Computation
 https://


  The ELSI infrastructure was used in your run to solve the Kohn-Sham electronic structure.
  Please check out http://elsi-interchange.org to learn more.
  If scalability is important for your project, please acknowledge ELSI by citing:

    V. W-z. Yu, F. Corsetti, A. Garcia, W. P. Huhn, M. Jacquelin, W. Jia,
    B. Lange, L. Lin, J. Lu, W. Mi, A. Seifitokaldani, A. Vazquez-Mayagoitia,
    C. Yang, H. Yang, and V. Blum
    'ELSI: A unified software interface for Kohn-Sham electronic structure solvers'
    Computer Physics Communications 222, 267-285 (2018).
    http://doi.org/10.1016/j.cpc.2017.09.007


  For the real-space grid partitioning and parallelization used in this calculation, please cite:

    Ville Havu, Volker Blum, Paula Havu, and Matthias Scheffler,
    'Efficient O(N) integration for all-electron electronic structure calculation'
    'using numerically tabulated basis functions'
    Journal of Computational Physics 228, 8367-8379 (2009).
    http://doi.org/10.1016/j.jcp.2009.08.008

  Of course, there are many other important community references, e.g., those cited in the
  above references. Our list is limited to references that describe implementations in the
  FHI-aims code. The reason is purely practical (length of this list) - please credit others as well.

 * A warning was issued further up regarding the accuracy of onsite integrals.
   An integral with a negative eigenvalue was among the flagged integrals.
   In most standard situations, this warning is probably harmless.
   If needed, this can be verified by adjusting the radial_multiplier flag.

------------------------------------------------------------
          Leaving FHI-aims.
          Date     :  20240719, Time     :  150107.944

          Computational steps:
          | Number of self-consistency cycles          :           42
          | Number of SCF (re)initializations          :            1

          Detailed time accounting                     :  max(cpu_time)    wall_clock(cpu1)
          | Total time                                  :      387.781 s         389.440 s
          | Preparation time                            :        0.529 s           0.571 s
          | Boundary condition initalization            :        0.230 s           0.230 s
          | Grid partitioning                           :        0.402 s           0.403 s
          | Preloading free-atom quantities on grid     :        0.708 s           0.710 s
          | Free-atom superposition energy              :        0.103 s           0.104 s
          | Total time for integrations                 :       65.539 s          65.696 s
          | Total time for solution of K.-S. equations  :      123.448 s          93.652 s
          | Total time for density & force components   :      100.710 s         100.954 s
          | Total time for mixing & preconditioning     :       42.641 s          42.456 s
          | Total time for Hartree multipole update     :        0.504 s           0.521 s
          | Total time for Hartree multipole sum        :       18.498 s          18.543 s
          | Total time for total energy evaluation      :        0.237 s           0.288 s
          | Total time NSC force correction             :        2.417 s           2.562 s
          | Total time for scaled ZORA corrections      :        0.000 s           0.000 s
          | Total time for band structures, DOS         :        0.020 s           0.004 s
          | Total time for Mulliken analysis            :        0.970 s           0.970 s

          Partial memory accounting:
          | Residual value for overall tracked memory usage across tasks:     0.000000 MB (should be 0.000000 MB)
          | Peak values for overall tracked memory usage:
          |   Minimum:      206.511 MB (on task  24 after allocating temp_ham_ovlp)
          |   Maximum:      207.323 MB (on task   0 after allocating temp_ham_ovlp)
          |   Average:      207.159 MB
          | Largest tracked array allocation:
          |   Minimum:       56.176 MB (overlap_matrix on task   0)
          |   Maximum:       56.176 MB (overlap_matrix on task   0)
          |   Average:       56.176 MB
          Note:  These values currently only include a subset of arrays which are explicitly tracked.
          The "true" memory usage will be greater.

          Have a nice day.
------------------------------------------------------------
