------------------------------------------------------------
          Invoking FHI-aims ...

          When using FHI-aims, please cite the following reference:

            Volker Blum, Ralf Gehrke, Felix Hanke, Paula Havu,
            Ville Havu, Xinguo Ren, Karsten Reuter, and Matthias Scheffler,
            'Ab Initio Molecular Simulations with Numeric Atom-Centered Orbitals',
            Computer Physics Communications 180, 2175-2196 (2009)

          In addition, many other developments in FHI-aims are likely important for
          your particular application. If so, please cite them. A partial list of references
          is written at the end of this file. Thank you for giving credit to the authors
          of these developments.

          For general information about FHI-aims please find us at

            https://fhi-aims.org

          Online tutorials can be found at

            https://fhi-aims-club.gitlab.io/tutorials/tutorials-overview/

          For any questions about FHI-aims, please visit our slack channel at

            https://fhi-aims.slack.com

          and our main development and support site at

            https://aims-git.rz-berlin.mpg.de .

          The latter site, in particular, has a wiki to collect information, as well
          as an issue tracker to log discussions, suggest improvements, and report issues
          or bugs. https://aims-git.rz-berlin.mpg.de is also the main development site
          of the project and all new and updated code versions can be obtained there.
          Please send an email to aims-coordinators@fhi-berlin.mpg.de and we will add
          you to these sites. They are for you and everyone is welcome there.

------------------------------------------------------------



  Date     :  20240717, Time     :  090003.767
  Time zero on CPU 1             :   0.204749000000000E+00  s.
  Internal wall clock time zero  :           490438803.767  s.

  FHI-aims created a unique identifier for this run for later identification
  aims_uuid : 94DB1B5C-A9E3-407D-A559-F3DF55064DC9

  Build configuration of the current instance of FHI-aims
  -------------------------------------------------------
  FHI-aims version      : 230612
  Commit number         : 0c86b0d53
  CMake host system     : Linux-3.10.0-1160.80.1.el7.x86_64
  CMake version         : 3.24.2
  Fortran compiler      : /apps/compilers/intel/2018.2/compilers_and_libraries_2018/linux/mpi/intel64/bin/mpif90 (Intel) version 18.0.2.20180210
  Fortran compiler flags: -O3 -ip -fp-model precise
  C compiler            : /apps/compilers/intel/2018.2/compilers_and_libraries_2018/linux/bin/intel64/icc (Intel) version 18.0.2.20180210
  C compiler flags      : -O3 -ip -fp-model precise -std=gnu99
  HIP compiler          :
  HIP compiler flags    :
  HIP GPU arch          :
  ELPA2 kernel          : AVX2
  Using MPI
  Using ScaLAPACK
  Using LibXC
  Using i-PI
  Using RLSY
  Linking against: /apps/compilers/intel/2018.2/compilers_and_libraries_2018/linux/mkl/lib/intel64/libmkl_intel_lp64.so
                   /apps/compilers/intel/2018.2/compilers_and_libraries_2018/linux/mkl/lib/intel64/libmkl_intel_thread.so
                   /apps/compilers/intel/2018.2/compilers_and_libraries_2018/linux/mkl/lib/intel64/libmkl_core.so
                   /apps/compilers/intel/2018.2/compilers_and_libraries_2018/linux/mkl/lib/intel64/libmkl_blacs_intelmpi_lp64.so
                   /apps/compilers/intel/2018.2/compilers_and_libraries_2018/linux/mkl/lib/intel64/libmkl_scalapack_lp64.so
                   /usr/lib64/libpthread.so

  Using      200 parallel tasks.
  Task        0 on host ccs0051 reporting.
  Task        1 on host ccs0051 reporting.
  Task        2 on host ccs0051 reporting.
  Task        3 on host ccs0051 reporting.
  Task        4 on host ccs0051 reporting.
  Task        5 on host ccs0051 reporting.
  Task        6 on host ccs0051 reporting.
  Task        7 on host ccs0051 reporting.
  Task        8 on host ccs0051 reporting.
  Task        9 on host ccs0051 reporting.
  Task       10 on host ccs0051 reporting.
  Task       11 on host ccs0051 reporting.
  Task       12 on host ccs0051 reporting.
  Task       13 on host ccs0051 reporting.
  Task       14 on host ccs0051 reporting.
  Task       15 on host ccs0051 reporting.
  Task       16 on host ccs0051 reporting.
  Task       17 on host ccs0051 reporting.
  Task       18 on host ccs0051 reporting.
  Task       19 on host ccs0051 reporting.
  Task       20 on host ccs0051 reporting.
  Task       21 on host ccs0051 reporting.
  Task       22 on host ccs0051 reporting.
  Task       23 on host ccs0051 reporting.
  Task       24 on host ccs0051 reporting.
  Task       25 on host ccs0051 reporting.
  Task       26 on host ccs0051 reporting.
  Task       27 on host ccs0051 reporting.
  Task       28 on host ccs0051 reporting.
  Task       29 on host ccs0051 reporting.
  Task       30 on host ccs0051 reporting.
  Task       31 on host ccs0051 reporting.
  Task       32 on host ccs0051 reporting.
  Task       33 on host ccs0051 reporting.
  Task       34 on host ccs0051 reporting.
  Task       35 on host ccs0051 reporting.
  Task       36 on host ccs0051 reporting.
  Task       37 on host ccs0051 reporting.
  Task       38 on host ccs0051 reporting.
  Task       39 on host ccs0051 reporting.
  Task       40 on host ccs0052 reporting.
  Task       41 on host ccs0052 reporting.
  Task       42 on host ccs0052 reporting.
  Task       43 on host ccs0052 reporting.
  Task       44 on host ccs0052 reporting.
  Task       45 on host ccs0052 reporting.
  Task       46 on host ccs0052 reporting.
  Task       47 on host ccs0052 reporting.
  Task       48 on host ccs0052 reporting.
  Task       49 on host ccs0052 reporting.
  Task       50 on host ccs0052 reporting.
  Task       51 on host ccs0052 reporting.
  Task       52 on host ccs0052 reporting.
  Task       53 on host ccs0052 reporting.
  Task       54 on host ccs0052 reporting.
  Task       55 on host ccs0052 reporting.
  Task       56 on host ccs0052 reporting.
  Task       57 on host ccs0052 reporting.
  Task       58 on host ccs0052 reporting.
  Task       59 on host ccs0052 reporting.
  Task       60 on host ccs0052 reporting.
  Task       61 on host ccs0052 reporting.
  Task       62 on host ccs0052 reporting.
  Task       63 on host ccs0052 reporting.
  Task       64 on host ccs0052 reporting.
  Task       65 on host ccs0052 reporting.
  Task       66 on host ccs0052 reporting.
  Task       67 on host ccs0052 reporting.
  Task       68 on host ccs0052 reporting.
  Task       69 on host ccs0052 reporting.
  Task       70 on host ccs0052 reporting.
  Task       71 on host ccs0052 reporting.
  Task       72 on host ccs0052 reporting.
  Task       73 on host ccs0052 reporting.
  Task       74 on host ccs0052 reporting.
  Task       75 on host ccs0052 reporting.
  Task       76 on host ccs0052 reporting.
  Task       77 on host ccs0052 reporting.
  Task       78 on host ccs0052 reporting.
  Task       79 on host ccs0052 reporting.
  Task       80 on host ccs0055 reporting.
  Task       81 on host ccs0055 reporting.
  Task       82 on host ccs0055 reporting.
  Task       83 on host ccs0055 reporting.
  Task       84 on host ccs0055 reporting.
  Task       85 on host ccs0055 reporting.
  Task       86 on host ccs0055 reporting.
  Task       87 on host ccs0055 reporting.
  Task       88 on host ccs0055 reporting.
  Task       89 on host ccs0055 reporting.
  Task       90 on host ccs0055 reporting.
  Task       91 on host ccs0055 reporting.
  Task       92 on host ccs0055 reporting.
  Task       93 on host ccs0055 reporting.
  Task       94 on host ccs0055 reporting.
  Task       95 on host ccs0055 reporting.
  Task       96 on host ccs0055 reporting.
  Task       97 on host ccs0055 reporting.
  Task       98 on host ccs0055 reporting.
  Task       99 on host ccs0055 reporting.
  Task      100 on host ccs0055 reporting.
  Task      101 on host ccs0055 reporting.
  Task      102 on host ccs0055 reporting.
  Task      103 on host ccs0055 reporting.
  Task      104 on host ccs0055 reporting.
  Task      105 on host ccs0055 reporting.
  Task      106 on host ccs0055 reporting.
  Task      107 on host ccs0055 reporting.
  Task      108 on host ccs0055 reporting.
  Task      109 on host ccs0055 reporting.
  Task      110 on host ccs0055 reporting.
  Task      111 on host ccs0055 reporting.
  Task      112 on host ccs0055 reporting.
  Task      113 on host ccs0055 reporting.
  Task      114 on host ccs0055 reporting.
  Task      115 on host ccs0055 reporting.
  Task      116 on host ccs0055 reporting.
  Task      117 on host ccs0055 reporting.
  Task      118 on host ccs0055 reporting.
  Task      119 on host ccs0055 reporting.
  Task      120 on host ccs0060 reporting.
  Task      121 on host ccs0060 reporting.
  Task      122 on host ccs0060 reporting.
  Task      123 on host ccs0060 reporting.
  Task      124 on host ccs0060 reporting.
  Task      125 on host ccs0060 reporting.
  Task      126 on host ccs0060 reporting.
  Task      127 on host ccs0060 reporting.
  Task      128 on host ccs0060 reporting.
  Task      129 on host ccs0060 reporting.
  Task      130 on host ccs0060 reporting.
  Task      131 on host ccs0060 reporting.
  Task      132 on host ccs0060 reporting.
  Task      133 on host ccs0060 reporting.
  Task      134 on host ccs0060 reporting.
  Task      135 on host ccs0060 reporting.
  Task      136 on host ccs0060 reporting.
  Task      137 on host ccs0060 reporting.
  Task      138 on host ccs0060 reporting.
  Task      139 on host ccs0060 reporting.
  Task      140 on host ccs0060 reporting.
  Task      141 on host ccs0060 reporting.
  Task      142 on host ccs0060 reporting.
  Task      143 on host ccs0060 reporting.
  Task      144 on host ccs0060 reporting.
  Task      145 on host ccs0060 reporting.
  Task      146 on host ccs0060 reporting.
  Task      147 on host ccs0060 reporting.
  Task      148 on host ccs0060 reporting.
  Task      149 on host ccs0060 reporting.
  Task      150 on host ccs0060 reporting.
  Task      151 on host ccs0060 reporting.
  Task      152 on host ccs0060 reporting.
  Task      153 on host ccs0060 reporting.
  Task      154 on host ccs0060 reporting.
  Task      155 on host ccs0060 reporting.
  Task      156 on host ccs0060 reporting.
  Task      157 on host ccs0060 reporting.
  Task      158 on host ccs0060 reporting.
  Task      159 on host ccs0060 reporting.
  Task      160 on host ccs0064 reporting.
  Task      161 on host ccs0064 reporting.
  Task      162 on host ccs0064 reporting.
  Task      163 on host ccs0064 reporting.
  Task      164 on host ccs0064 reporting.
  Task      165 on host ccs0064 reporting.
  Task      166 on host ccs0064 reporting.
  Task      167 on host ccs0064 reporting.
  Task      168 on host ccs0064 reporting.
  Task      169 on host ccs0064 reporting.
  Task      170 on host ccs0064 reporting.
  Task      171 on host ccs0064 reporting.
  Task      172 on host ccs0064 reporting.
  Task      173 on host ccs0064 reporting.
  Task      174 on host ccs0064 reporting.
  Task      175 on host ccs0064 reporting.
  Task      176 on host ccs0064 reporting.
  Task      177 on host ccs0064 reporting.
  Task      178 on host ccs0064 reporting.
  Task      179 on host ccs0064 reporting.
  Task      180 on host ccs0064 reporting.
  Task      181 on host ccs0064 reporting.
  Task      182 on host ccs0064 reporting.
  Task      183 on host ccs0064 reporting.
  Task      184 on host ccs0064 reporting.
  Task      185 on host ccs0064 reporting.
  Task      186 on host ccs0064 reporting.
  Task      187 on host ccs0064 reporting.
  Task      188 on host ccs0064 reporting.
  Task      189 on host ccs0064 reporting.
  Task      190 on host ccs0064 reporting.
  Task      191 on host ccs0064 reporting.
  Task      192 on host ccs0064 reporting.
  Task      193 on host ccs0064 reporting.
  Task      194 on host ccs0064 reporting.
  Task      195 on host ccs0064 reporting.
  Task      196 on host ccs0064 reporting.
  Task      197 on host ccs0064 reporting.
  Task      198 on host ccs0064 reporting.
  Task      199 on host ccs0064 reporting.

  Obtaining array dimensions for all initial allocations:
  
  -----------------------------------------------------------------------
  Parsing control.in (first pass over file, find array dimensions only).
  The contents of control.in will be repeated verbatim below
  unless switched off by setting 'verbatim_writeout .false.' .
  in the first line of control.in .
  -----------------------------------------------------------------------
  
  #===============================================================================
  # FHI-aims file: ./control.in
  # Created using the Atomic Simulation Environment (ASE)
  # Wed Jul 17 09:00:02 2024
  #===============================================================================
  spin                               none
  relativistic                       atomic_zora scalar
  compute_forces                     .true.
  override_warning_libxc             true
  xc                                 libxc MGGA_X_MBEEF+GGA_C_PBE_SOL
  k_grid                             2 2 3
  occupation_type                    gaussian 0.1
  plus_u_petukhov_mixing             1
  plus_u_use_hydros                  True
  plus_u_matrix_control              True
  plus_u_matrix_release              0.001
  output                             dos -18 0 200 0.1
  output                             atom_proj_dos -18 0 200 0.1
  sc_accuracy_etot                   1e-06
  sc_accuracy_eev                    0.001
  sc_accuracy_rho                    1e-06
  sc_accuracy_forces                 0.0001
  #===============================================================================
  
  ################################################################################
  #
  #  FHI-aims code project
  #  VB, Fritz-Haber Institut, 2009
  #
  #  Suggested "light" defaults for Ti atom (to be pasted into control.in file)
  #  Be sure to double-check any results obtained with these settings for post-processing,
  #  e.g., with the "tight" defaults and larger basis sets.
  #
  ################################################################################
    species        Ti
  #     global species definitions
      nucleus             22
      mass                47.867
  #
      l_hartree           4
  #
      cut_pot             3.5          1.5  1.0
      basis_dep_cutoff    1e-4
  #
      radial_base         48 5.0
      radial_multiplier   1
      angular_grids       specified
        division   0.5171   50
        division   0.9824  110
        division   1.2917  194
        division   1.4940  302
  #      division   1.6934  434
  #      division   1.8425  590
  #      division   2.1901  770
  #      division   2.2896  974
  #      division   2.8244 1202
  #      outer_grid  974
        outer_grid  302
  ################################################################################
  #
  #  Definition of "minimal" basis
  #
  ################################################################################
  #     valence basis states
      valence      4  s   2.
      valence      3  p   6.
      valence      3  d   2.
  #     ion occupancy
      ion_occ      4  s   1.
      ion_occ      3  p   6.
      ion_occ      3  d   1.
  ################################################################################
  #
  #  Suggested additional basis functions. For production calculations,
  #  uncomment them one after another (the most important basis functions are
  #  listed first).
  #
  #  Constructed for dimers: 1.6 A, 1.85 A, 2.5 A, 3.25 A, 4.25 A
  #
  ################################################################################
  #  "First tier" - improvements: -396.25 meV to -19.41 meV
       hydro 4 f 8
       hydro 3 d 2.7
       ionic 4 p auto
  #     hydro 5 g 11.6
       ionic 4 s auto
  #  "Second tier" - improvements: -16.30 meV to -2.03 meV
  #     hydro 3 d 4.4
  #     hydro 6 h 16
  #     hydro 4 f 9.4
  #     hydro 4 p 4.5
  #     hydro 1 s 0.5
  #  "Third tier" - improvements: -6.28 meV to -0.37 meV
  #     hydro 4 d 6.4
  #     hydro 4 f 10
  #     hydro 5 g 12
  #     hydro 2 p 1.7
  #     hydro 6 h 16.4
  #     hydro 4 s 3.8
  #  Further basis functions: -0.45 meV and smaller improvements
  #     hydro 3 d 8.8
  #     hydro 5 p 18
  #     hydro 4 f 22.4
  #     hydro 5 f 7.2  # -0.16 meV
  #     hydro 3 d 2.1  # -0.11 meV
  #     hydro 5 g 7.4  # -0.09 meV
  plus_u 3 d 2.575
  hubbard_coefficient 0.752 -0.486 0 0
  ################################################################################
  #
  #  FHI-aims code project
  #  VB, Fritz-Haber Institut, 2009
  #
  #  Suggested "light" defaults for O atom (to be pasted into control.in file)
  #  Be sure to double-check any results obtained with these settings for post-processing,
  #  e.g., with the "tight" defaults and larger basis sets.
  #
  ################################################################################
    species        O
  #     global species definitions
      nucleus             8
      mass                15.9994
  #
      l_hartree           4
  #
      cut_pot             3.5  1.5  1.0
      basis_dep_cutoff    1e-4
  #
      radial_base         36 5.0
      radial_multiplier   1
       angular_grids specified
        division   0.2659   50
        division   0.4451  110
        division   0.6052  194
        division   0.7543  302
  #      division   0.8014  434
  #      division   0.8507  590
  #      division   0.8762  770
  #      division   0.9023  974
  #      division   1.2339 1202
  #      outer_grid 974
        outer_grid 302
  ################################################################################
  #
  #  Definition of "minimal" basis
  #
  ################################################################################
  #     valence basis states
      valence      2  s   2.
      valence      2  p   4.
  #     ion occupancy
      ion_occ      2  s   1.
      ion_occ      2  p   3.
  ################################################################################
  #
  #  Suggested additional basis functions. For production calculations,
  #  uncomment them one after another (the most important basis functions are
  #  listed first).
  #
  #  Constructed for dimers: 1.0 A, 1.208 A, 1.5 A, 2.0 A, 3.0 A
  #
  ################################################################################
  #  "First tier" - improvements: -699.05 meV to -159.38 meV
       hydro 2 p 1.8
       hydro 3 d 7.6
       hydro 3 s 6.4
  #  "Second tier" - improvements: -49.91 meV to -5.39 meV
  #     hydro 4 f 11.6
  #     hydro 3 p 6.2
  #     hydro 3 d 5.6
  #     hydro 5 g 17.6
  #     hydro 1 s 0.75
  #  "Third tier" - improvements: -2.83 meV to -0.50 meV
  #     ionic 2 p auto
  #     hydro 4 f 10.8
  #     hydro 4 d 4.7
  #     hydro 2 s 6.8
  #  "Fourth tier" - improvements: -0.40 meV to -0.12 meV
  #     hydro 3 p 5
  #     hydro 3 s 3.3
  #     hydro 5 g 15.6
  #     hydro 4 f 17.6
  #     hydro 4 d 14
  # Further basis functions - -0.08 meV and below
  #     hydro 3 s 2.1
  #     hydro 4 d 11.6
  #     hydro 3 p 16
  #     hydro 2 s 17.2################################################################################
  #
  #  FHI-aims code project
  #  VB, Fritz-Haber Institut, 2009
  #
  #  Suggested "light" defaults for Nb atom (to be pasted into control.in file)
  #  Be sure to double-check any results obtained with these settings for post-processing,
  #  e.g., with the "tight" defaults and larger basis sets.
  #
  ################################################################################
    species        Nb
  #     global species definitions
      nucleus             41
      mass                92.90638
  #
      l_hartree           4
  #
      cut_pot             3.5  1.5  1.0
      basis_dep_cutoff    1e-4
  #
      radial_base         59 5.0
      radial_multiplier   1
      angular_grids specified
        division   0.5255   50
        division   0.9829  110
        division   1.2922  194
        division   1.6123  302
  #      division   1.9879  434
  #      division   2.0980  590
  #      division   2.1365  770
  #      division   2.1759  974
  #      division   2.8558 1202
  #      outer_grid   974
        outer_grid   302
  ################################################################################
  #
  #  Definition of "minimal" basis
  #
  ################################################################################
  #     valence basis states
      valence      5  s   1.
      valence      4  p   6.
      valence      4  d   4.
  #     ion occupancy
      ion_occ     5  s   0.
      ion_occ     4  p   6.
      ion_occ     4  d   3.
  ################################################################################
  #
  #  Suggested additional basis functions. For production calculations,
  #  uncomment them one after another (the most important basis functions are
  #  listed first).
  #
  #  Constructed for dimers: 1.75 A, 2.05 A, 2.40 A, 3.00 A, 4.00 A
  #
  ################################################################################
  #  "First tier"  - max. impr. -632.19  meV, min. impr. -22.82 meV
       hydro 4 f 7.8
       hydro 3 d 2.6
       ionic 5 p auto
  #     hydro 5 g 11.2
       ionic 5 s auto
  #  "Second tier" - max. impr. -32.41  meV, min. impr. -1.92 meV
  #     hydro 4 f 12.4
  #     hydro 3 d 3.2
  #     hydro 6 h 16
  #     hydro 4 f 6.8
  #     hydro 3 p 2.7
  #     hydro 1 s 0.65
  #  "Third tier"  - max. impr. -3.96 meV, min. impr. -0.50 meV
  #     hydro 4 f 28
  #     hydro 5 g 10.8
  #     hydro 3 d 6.4
  #     hydro 2 p 1.2
  #     hydro 6 h 14.4
  #     hydro 4 s 3.3
  #  "Fourth tier"  - max. impr. -0.36  meV, min. impr. -0.20 meV
  #     hydro 5 f 6.6
  #     ionic 4 d auto
  #     hydro 5 p 6.8
  #     hydro 5 g 19.2
  #     hydro 6 s 7
  #  Further functions - -0.18 meV and below
  #     hydro 5 d 2.7
  #     hydro 5 p 7.6
  #     hydro 5 d 16.4
  plus_u 4 d 0
  hubbard_coefficient 1 0 0 0
  
  -----------------------------------------------------------------------
  Completed first pass over input file control.in .
  -----------------------------------------------------------------------
  
  
  -----------------------------------------------------------------------
  Parsing geometry.in (first pass over file, find array dimensions only).
  The contents of geometry.in will be repeated verbatim below
  unless switched off by setting 'verbatim_writeout .false.' .
  in the first line of geometry.in .
  -----------------------------------------------------------------------
  
  #=======================================================
  # FHI-aims file: ./geometry.in
  # Created using the Atomic Simulation Environment (ASE)
  # Wed Jul 17 09:00:02 2024
  #=======================================================
  lattice_vector 13.7870999999999988 0.0000000000000000 0.0000000000000000
  lattice_vector 0.0000000000000000 13.7870999999999988 0.0000000000000000
  lattice_vector 0.0000000000000000 0.0000000000000000 8.8766999999999996
  atom_frac 0.1663059488650885 0.1663059361107549 0.1656607893207042 Ti
  atom_frac -0.0000000190237991 -0.0000000119736833 -0.0000000019330710 Ti
  atom_frac 0.0649286060159718 0.2683433513095203 0.1666337401190844 O
  atom_frac 0.2683404256519561 0.0649256530025192 0.1666337211005095 O
  atom_frac 0.1016621631084913 0.1016651744644207 0.0000000010418023 O
  atom_frac 0.2310582658633721 0.2310553288862704 0.0000000016774759 O
  atom_frac 0.1644106377891684 0.1644109915630912 0.5000000073681842 Ti
  atom_frac -0.0000000117678048 -0.0000000108436167 0.3317953191462938 Ti
  atom_frac 0.0646744423308158 0.2680597216556670 0.5000000007806151 O
  atom_frac 0.2680568054094581 0.0646714407616157 0.5000000008763698 O
  atom_frac 0.1014805445903644 0.1014835929163358 0.3332613510815682 O
  atom_frac 0.2309087594367537 0.2309057691800886 0.3335460888025018 O
  atom_frac 0.1663059594169451 0.1663059457779852 0.8343392104532553 Ti
  atom_frac -0.0000000110466186 -0.0000000098566043 0.6682046888393068 Ti
  atom_frac 0.0649286065989178 0.2683433526295440 0.8333662628727895 O
  atom_frac 0.2683404264791887 0.0649256536627460 0.8333662819729198 O
  atom_frac 0.1014805453361854 0.1014835939247590 0.6667386518586778 O
  atom_frac 0.2309087605197471 0.2309057702072434 0.6664539123326758 O
  atom_frac 0.1662742975543166 0.5002470906293945 0.1666509612298672 Ti
  atom_frac 0.0002559996740191 0.3330601029762768 0.0000000010500186 Ti
  atom_frac 0.0648632479341786 0.6021812613740679 0.1666630604145949 O
  atom_frac 0.2680520519406338 0.3974330395183442 0.1665405926981788 O
  atom_frac 0.1016328755439353 0.4354929048396319 0.0000000009174930 O
  atom_frac 0.2318076137921905 0.5644801480015259 0.0000000009295327 O
  atom_frac 0.1672202669598484 0.4995409280061515 0.4999999987064894 Ti
  atom_frac -0.0002107948935720 0.3334648365283204 0.3336354247866998 Ti
  atom_frac 0.0646971191635675 0.6021429988527601 0.5000000008383348 O
  atom_frac 0.2684971670703085 0.3978819943532135 0.4999999995773072 O
  atom_frac 0.1019043156567293 0.4353050541720823 0.3333831515111051 O
  atom_frac 0.2314803359402922 0.5649660520104117 0.3333650766045156 O
  atom_frac 0.1662743014718164 0.5002470914912781 0.8333490355766112 Ti
  atom_frac -0.0002107953525038 0.3334648408169454 0.6663645811883502 Ti
  atom_frac 0.0648632478113891 0.6021812613644610 0.8333369413447591 O
  atom_frac 0.2680520521055746 0.3974330400254853 0.8334594081581187 O
  atom_frac 0.1019043151242077 0.4353050544680594 0.6666168496598862 O
  atom_frac 0.2314803358579034 0.5649660519397277 0.6666349243380664 O
  atom_frac 0.1665740376705490 0.8334259385120969 0.1664887882866995 Ti
  atom_frac -0.0002560008519333 0.6669399119980981 0.0000000017292452 Ti
  atom_frac 0.0646541487994076 0.9353488917475153 0.1666772661419172 O
  atom_frac 0.2685271434986703 0.7314698877365525 0.1663612585716107 O
  atom_frac 0.1017840270508483 0.7688299794406933 0.0000000010531446 O
  atom_frac 0.2311730296805002 0.8982129795402438 0.0000000011122830 O
  atom_frac 0.1645843345040700 0.8354155213201147 0.4999999989061136 Ti
  atom_frac 0.0002108036244511 0.6665351594419765 0.3336354309818435 Ti
  atom_frac 0.0646716536842703 0.9353313799477835 0.5000000014888755 O
  atom_frac 0.2681157249747815 0.7318813084543039 0.5000000003596853 O
  atom_frac 0.1018065751034319 0.7687829583506135 0.3332402203314063 O
  atom_frac 0.2312200162406280 0.8981904631774298 0.3332401764831661 O
  atom_frac 0.1665740411241672 0.8334259333044495 0.8335112089172450 Ti
  atom_frac 0.0002108021039179 0.6665351581162521 0.6663645758527252 Ti
  atom_frac 0.0646541481518230 0.9353488923539999 0.8333227362498093 O
  atom_frac 0.2685271426268619 0.7314698884074302 0.8336387413101353 O
  atom_frac 0.1018065748609136 0.7687829584616853 0.6667597815022939 O
  atom_frac 0.2312200159806220 0.8981904632403067 0.6667598255794104 O
  atom_frac 0.5002471006702182 0.1662742698974397 0.1666509400353637 Ti
  atom_frac 0.3330601399738658 0.0002558308314959 0.0000000010597856 Ti
  atom_frac 0.3974358989820518 0.2680550235977074 0.1665404839511336 O
  atom_frac 0.6021783054091694 0.0648603670886700 0.1666630755882096 O
  atom_frac 0.4354900078344513 0.1016358176517242 0.0000000012920466 O
  atom_frac 0.5644830664209597 0.2318048177593331 0.0000000004284815 O
  atom_frac 0.4995407908812391 0.1672199993230645 0.4999999984187524 Ti
  atom_frac 0.3334645580778261 -0.0002108642989668 0.3336355277290460 Ti
  atom_frac 0.3978848226754250 0.2685000760783387 0.5000000004278783 O
  atom_frac 0.6021400528162099 0.0646942428151740 0.5000000009311830 O
  atom_frac 0.4353021365430820 0.1019072923313474 0.3333831750800105 O
  atom_frac 0.5649688845444756 0.2314776081157340 0.3333650879070288 O
  atom_frac 0.5002471004724397 0.1662742687575621 0.8333490587373661 Ti
  atom_frac 0.3334645602460014 -0.0002108670955763 0.6663644774908528 Ti
  atom_frac 0.3974358988574375 0.2680550228823860 0.8334595166066461 O
  atom_frac 0.6021783055742366 0.0648603670094837 0.8333369268369584 O
  atom_frac 0.4353021370517187 0.1019072919092992 0.6666168263742911 O
  atom_frac 0.5649688847159517 0.2314776081969139 0.6666349136566909 O
  atom_frac 0.5000000509689657 0.5000000407595450 0.1634313770852695 Ti
  atom_frac 0.3325837388034208 0.3325837791381431 0.0000000021585004 Ti
  atom_frac 0.3981772096320655 0.6018255509913898 0.1669634508319777 O
  atom_frac 0.6018227980269580 0.3981744599430828 0.1669634491868252 O
  atom_frac 0.4351362439145481 0.4351391607884774 -0.0000000039475671 O
  atom_frac 0.5648637736679079 0.5648608574506715 -0.0000000037296849 O
  atom_frac 0.4999998939084287 0.4999999092956294 0.4999999593953541 Nb
  atom_frac 0.3297661530820363 0.3297659894027394 0.3324415345603823 Ti
  atom_frac 0.3975173400301663 0.6024851226933566 0.5000000003939147 O
  atom_frac 0.6024826507858085 0.3975148653281996 0.5000000007451794 O
  atom_frac 0.4344379552223741 0.4344407980453698 0.3311627103770926 O
  atom_frac 0.5655620437080212 0.5655592001221417 0.3311627471245929 O
  atom_frac 0.5000000495552601 0.5000000436785431 0.8365685604809606 Ti
  atom_frac 0.3297661683370243 0.3297660018682045 0.6675584671763476 Ti
  atom_frac 0.3981772092731259 0.6018255512288957 0.8330365479655404 O
  atom_frac 0.6018227986798437 0.3981744591032376 0.8330365488647619 O
  atom_frac 0.4344379567831893 0.4344407992917477 0.6688372857822411 O
  atom_frac 0.5655620423308385 0.5655591987784482 0.6688372492199344 O
  atom_frac 0.4997529068562543 0.8337257285070181 0.1666509344082517 Ti
  atom_frac 0.3356884335565854 0.6643115804049906 0.0000000033494808 Ti
  atom_frac 0.3978216974304827 0.9351396366462964 0.1666630772366030 O
  atom_frac 0.6025640996597544 0.7319449766281806 0.1665404830002015 O
  atom_frac 0.4355169342276876 0.7681951899568867 0.0000000001631695 O
  atom_frac 0.5645099969656326 0.8983641823924519 0.0000000006069219 O
  atom_frac 0.5004591996043309 0.8327800198400029 0.4999999958155496 Ti
  atom_frac 0.3304448049084445 0.6695552816528035 0.3319420365607738 Ti
  atom_frac 0.3978599516392410 0.9353057600604924 0.5000000007889990 O
  atom_frac 0.6021151823716693 0.7314999307156622 0.5000000002689812 O
  atom_frac 0.4350311174367368 0.7685223939640520 0.3333650906988254 O
  atom_frac 0.5646978643451673 0.8980927117484172 0.3333831736318505 O
  atom_frac 0.4997529106263804 0.8337257247289218 0.8333490630678171 Ti
  atom_frac 0.3304448090860941 0.6695552824179610 0.6680579650274578 Ti
  atom_frac 0.3978216969919984 0.9351396368804694 0.8333369248795810 O
  atom_frac 0.6025640987411799 0.7319449765877556 0.8334595169015970 O
  atom_frac 0.4350311175426318 0.7685223935617809 0.6666349106113252 O
  atom_frac 0.5646978643162979 0.8980927122594256 0.6666168276832629 O
  atom_frac 0.8334259630042772 0.1665740733228479 0.1664887895193246 Ti
  atom_frac 0.6669398782128269 -0.0002558340740825 0.0000000034816496 Ti
  atom_frac 0.7314728584988870 0.2685301142090752 0.1663612583806167 O
  atom_frac 0.9353458522423093 0.0646511061596044 0.1666772663833897 O
  atom_frac 0.7688269745054870 0.1017870232858938 0.0000000010621421 O
  atom_frac 0.8982159763197520 0.2311700227386329 0.0000000014662169 O
  atom_frac 0.8354156624576126 0.1645844789220163 0.5000000007832341 Ti
  atom_frac 0.6665354386752386 0.0002108727419210 0.3336355344323249 Ti
  atom_frac 0.7318842771390617 0.2681186964696831 0.4999999999133409 O
  atom_frac 0.9353283454075461 0.0646686182324376 0.5000000014228149 O
  atom_frac 0.7687799872440381 0.1018095383507532 0.3332401753816439 O
  atom_frac 0.8981934283006456 0.2312170424069319 0.3332402206206666 O
  atom_frac 0.8334259570352486 0.1665740775614667 0.8335112071630423 Ti
  atom_frac 0.6665354352063992 0.0002108706127566 0.6663644705994924 Ti
  atom_frac 0.7314728585901876 0.2685301142856099 0.8336387420265603 O
  atom_frac 0.9353458522748779 0.0646511061032913 0.8333227367953396 O
  atom_frac 0.7687799871626774 0.1018095381747633 0.6667598265409037 O
  atom_frac 0.8981934279038661 0.2312170421501911 0.6667597813037249 O
  atom_frac 0.8337256996936435 0.4997529165559684 0.1666509572387727 Ti
  atom_frac 0.6643115767946832 0.3356884056619619 0.0000000016003913 Ti
  atom_frac 0.7319479491156385 0.6025669578083473 0.1665405921883937 O
  atom_frac 0.9351367563823157 0.3978187411452394 0.1666630615321427 O
  atom_frac 0.7681923925865933 0.4355198513243379 0.0000000008500060 O
  atom_frac 0.8983671263000286 0.5645070991802318 0.0000000012515925 O
  atom_frac 0.8327797534999029 0.5004590651556087 0.4999999983800782 Ti
  atom_frac 0.6695551946704806 0.3304447353773672 0.3319420497631045 Ti
  atom_frac 0.7315028412927760 0.6021180089150889 0.5000000002091303 O
  atom_frac 0.9353028846210696 0.3978570042855124 0.5000000005121392 O
  atom_frac 0.7685196671937999 0.4350339503445730 0.3333650789917612 O
  atom_frac 0.8980956898944837 0.5646949468252146 0.3333831496483496 O
  atom_frac 0.8337256944012460 0.4997529178191037 0.8333490398434431 Ti
  atom_frac 0.6695551876300664 0.3304447384040700 0.6680579521785497 Ti
  atom_frac 0.7319479492978650 0.6025669571490387 0.8334594079336284 O
  atom_frac 0.9351367564044283 0.3978187404600355 0.8333369414932245 O
  atom_frac 0.7685196673641979 0.4350339506147134 0.6666349225062558 O
  atom_frac 0.8980956899430582 0.5646949463349045 0.6666168513823205 O
  atom_frac 0.8336940692698955 0.8336940795405293 0.1656608670331928 Ti
  atom_frac 0.6674163832947452 0.6674163397065690 0.0000000039070253 Ti
  atom_frac 0.7316595776644156 0.9350743492711135 0.1666337166913535 O
  atom_frac 0.9350713965837917 0.7316566515460843 0.1666337359953488 O
  atom_frac 0.7689417325058107 0.7689446694663934 0.0000000013197002 O
  atom_frac 0.8983378408771592 0.8983348276135892 0.0000000008134903 O
  atom_frac 0.8355892736122132 0.8355889171321876 0.5000000069742825 Ti
  atom_frac 0.6702337575355646 0.6702339228983974 0.3324415556573035 Ti
  atom_frac 0.7319431902654387 0.9353285583126887 0.5000000012192095 O
  atom_frac 0.9353255571697834 0.7319402735913835 0.5000000010927307 O
  atom_frac 0.7690912345897435 0.7690942246711628 0.3335460786563775 O
  atom_frac 0.8985194486682759 0.8985163993587225 0.3332613527211563 O
  atom_frac 0.8336940588980045 0.8336940724720052 0.8343391311664289 Ti
  atom_frac 0.6702337447319923 0.6702339094333516 0.6675584436451030 Ti
  atom_frac 0.7316595768753590 0.9350743486676948 0.8333662856594046 O
  atom_frac 0.9350713961828615 0.7316566507750276 0.8333662670685514 O
  atom_frac 0.7690912337564048 0.7690942235392040 0.6664539227417985 O
  atom_frac 0.8985194477310106 0.8985163989779301 0.6667386498346431 O
  
  -----------------------------------------------------------------------
  Completed first pass over input file geometry.in .
  -----------------------------------------------------------------------
  

  Basic array size parameters:
  | Number of species                 :        3
  | Number of atoms                   :      162
  | Number of lattice vectors         :        3
  | Max. basis fn. angular momentum   :        3
  | Max. atomic/ionic basis occupied n:        5
  | Max. number of basis fn. types    :        3
  | Max. radial fns per species/type  :       10
  | Max. logarithmic grid size        :     1434
  | Max. radial integration grid size :       59
  | Max. angular integration grid size:      302
  | Max. angular grid division number :        8
  | Radial grid for Hartree potential :     1434
  | Number of spin channels           :        1
  | Max. number of (n,l) shells per species with '+U' treatment:        1

------------------------------------------------------------
          Reading file control.in.
------------------------------------------------------------
  Spin treatment: No spin polarisation.
  Scalar relativistic treatment of kinetic energy: on-site free-atom approximation to ZORA.
  Forces will be computed.
  XC: Using LibXC. Please refer to LibXC output for further details.
  Using libxc - Initializing
  Libxc version: 6.1.0


  ** PLEASE ** be careful using LibXC. Whilst most of the LDA, GGA and MGGA functionals,
  and hybrid variations therein, should be stable (though we always recommend testing!),
  there are several fancy functionals with e.g. range-separation, like HSE03/HSE06/LC-PBEh,
  and also MGGA functionals that depend on the laplacian of the density, like BR89,
  that are not fully implemented due to the infrastrucutre for these functionals being incomplete or non-generic.
  If you want to use these functionals please contact the development team and we will work on them with you!

  You have selected libxc functional MGGA_X_MBEEF (249)
    - Description: mBEEF exchange
    - Type: MGGA(Exchange)
    - Reference to Literature:
      [1] J. Wellendorff, K. T. Lundgaard, K. W. Jacobsen, and T. Bligaard.,  J. Chem. Phys. 140, 144107 (2014)

  You have selected libxc functional GGA_C_PBE_SOL (133)
    - Description: Perdew, Burke & Ernzerhof SOL
    - Type: GGA(Correlation)
    - Reference to Literature:
      [1] J. P. Perdew, A. Ruzsinszky, G. I. Csonka, O. A. Vydrov, G. E. Scuseria, L. A. Constantin, X. Zhou, and K. Burke.,  Phys. Rev. Lett. 100, 136406 (2008)

  Switching on meta-ggas
  Found k-point grid:         2         2         3
  Occupation type: Gaussian broadening, width =   0.100000E+00 eV.
  Fixing petukhov mixing factor to   1.000000000000
  hydrogenic basis funktions also used for DFT+U reference states
  Reading DFT+U occupation matrix, from file
  Reading DFT+U occupation matrix, from file
  DFT+U occupation matrix, is again calculated if total energy is converged within   0.001000000000
  Calculating density of states with
  | energy interval :-18.000000  0.000000
  | points & broadening :   200  0.100000
  Calculating atom-projected density of states with
  | energy interval :-18.000000  0.000000
  | points & broadening :   200  0.100000
  Convergence accuracy of total energy:  0.1000E-05
  Convergence accuracy of sum of eigenvalues:  0.1000E-02
  Convergence accuracy of self-consistent charge density:  0.1000E-05
  Convergence accuracy of forces:  0.1000E-03
 
  Reading configuration options for species Ti                  .
  | Found nuclear charge :  22.0000
  | Found atomic mass :    47.8670000000000      amu
  | Found l_max for Hartree potential  :   4
  | Found cutoff potl. onset [A], width [A], scale factor :    3.50000    1.50000    1.00000
  | Threshold for basis-dependent cutoff potential is   0.100000E-03
  | Found data for basic radial integration grid :    48 points, outermost radius =    5.000 A
  | Found multiplier for basic radial grid :   1
  | Found angular grid specification: user-specified.
  | Specified grid contains     5 separate shells.
  | Check grid settings after all constraints further below.
  | Found free-atom valence shell :  4 s   2.000
  | Found free-atom valence shell :  3 p   6.000
  | Found free-atom valence shell :  3 d   2.000
  | Found free-ion valence shell :  4 s   1.000
  | Found free-ion valence shell :  3 p   6.000
  | Found free-ion valence shell :  3 d   1.000
  | Found hydrogenic basis function :  4 f   8.000
  | Found hydrogenic basis function :  3 d   2.700
  | Found ionic basis function :  4 p , default cutoff radius.
  | Found ionic basis function :  4 s , default cutoff radius.
  | Found request for '+U' treatment for  3 d shell, U =     2.575000 eV.
  | Found coefficents for linear combination of hubbard projectors 
  Species Ti                  : Missing cutoff potential type.
  Defaulting to exp(1/x)/(1-x)^2 type cutoff potential.
  Species Ti: No 'logarithmic' tag. Using default grid for free atom:
  | Default logarithmic grid data [bohr] : 0.1000E-03 0.1000E+03 0.1012E+01
  | Will include ionic basis functions of  2.0-fold positive Ti                   ion.
  Species Ti: On-site basis accuracy parameter (for Gram-Schmidt orthonormalisation) not specified.
  Using default value basis_acc =  0.1000000E-03.
  Species Ti                  : Using default innermost maximum threshold i_radial=  2 for radial functions.
  Species Ti                  : Default cutoff onset for free atom density etc. : 0.35000000E+01 AA.
  Species Ti                  : Basic radial grid will be enhanced according to radial_multiplier =   1, to contain    48 grid points.
 
  Reading configuration options for species O                   .
  | Found nuclear charge :   8.0000
  | Found atomic mass :    15.9994000000000      amu
  | Found l_max for Hartree potential  :   4
  | Found cutoff potl. onset [A], width [A], scale factor :    3.50000    1.50000    1.00000
  | Threshold for basis-dependent cutoff potential is   0.100000E-03
  | Found data for basic radial integration grid :    36 points, outermost radius =    5.000 A
  | Found multiplier for basic radial grid :   1
  | Found angular grid specification: user-specified.
  | Specified grid contains     5 separate shells.
  | Check grid settings after all constraints further below.
  | Found free-atom valence shell :  2 s   2.000
  | Found free-atom valence shell :  2 p   4.000
  | Found free-ion valence shell :  2 s   1.000
  | Found free-ion valence shell :  2 p   3.000
  | Found hydrogenic basis function :  2 p   1.800
  | Found hydrogenic basis function :  3 d   7.600
  | Found hydrogenic basis function :  3 s   6.400
  Species O                   : Missing cutoff potential type.
  Defaulting to exp(1/x)/(1-x)^2 type cutoff potential.
  Species O : No 'logarithmic' tag. Using default grid for free atom:
  | Default logarithmic grid data [bohr] : 0.1000E-03 0.1000E+03 0.1012E+01
  Species O : On-site basis accuracy parameter (for Gram-Schmidt orthonormalisation) not specified.
  Using default value basis_acc =  0.1000000E-03.
  Species O                   : Using default innermost maximum threshold i_radial=  2 for radial functions.
  Species O                   : Default cutoff onset for free atom density etc. : 0.35000000E+01 AA.
  Species O                   : Basic radial grid will be enhanced according to radial_multiplier =   1, to contain    36 grid points.
 
  Reading configuration options for species Nb                  .
  | Found nuclear charge :  41.0000
  | Found atomic mass :    92.9063800000000      amu
  | Found l_max for Hartree potential  :   4
  | Found cutoff potl. onset [A], width [A], scale factor :    3.50000    1.50000    1.00000
  | Threshold for basis-dependent cutoff potential is   0.100000E-03
  | Found data for basic radial integration grid :    59 points, outermost radius =    5.000 A
  | Found multiplier for basic radial grid :   1
  | Found angular grid specification: user-specified.
  | Specified grid contains     5 separate shells.
  | Check grid settings after all constraints further below.
  | Found free-atom valence shell :  5 s   1.000
  | Found free-atom valence shell :  4 p   6.000
  | Found free-atom valence shell :  4 d   4.000
  | Found free-ion valence shell :  5 s   0.000
  | Found free-ion valence shell :  4 p   6.000
  | Found free-ion valence shell :  4 d   3.000
  | Found hydrogenic basis function :  4 f   7.800
  | Found hydrogenic basis function :  3 d   2.600
  | Found ionic basis function :  5 p , default cutoff radius.
  | Found ionic basis function :  5 s , default cutoff radius.
  | Found request for '+U' treatment for  4 d shell, U =     0.000000 eV.
  | Found coefficents for linear combination of hubbard projectors 
  Species Nb                  : Missing cutoff potential type.
  Defaulting to exp(1/x)/(1-x)^2 type cutoff potential.
  Species Nb: No 'logarithmic' tag. Using default grid for free atom:
  | Default logarithmic grid data [bohr] : 0.1000E-03 0.1000E+03 0.1012E+01
  | Will include ionic basis functions of  2.0-fold positive Nb                   ion.
  Species Nb: On-site basis accuracy parameter (for Gram-Schmidt orthonormalisation) not specified.
  Using default value basis_acc =  0.1000000E-03.
  Species Nb                  : Using default innermost maximum threshold i_radial=  2 for radial functions.
  Species Nb                  : Default cutoff onset for free atom density etc. : 0.35000000E+01 AA.
  Species Nb                  : Basic radial grid will be enhanced according to radial_multiplier =   1, to contain    59 grid points.
 
  Finished reading input file 'control.in'.
 
------------------------------------------------------------


------------------------------------------------------------
          Reading geometry description geometry.in.
------------------------------------------------------------
  | The smallest distance between any two atoms is         1.90204100 AA.
  | The first atom of this pair is atom number                     40 .
  | The second atom of this pair is atom number                    98 .
  | Wigner-Seitz cell of the first atom image           0     0     0 .
  | (The Wigner-Seitz cell of the second atom is 0 0 0  by definition.)

  Symmetry information by spglib:
  | Precision set to  0.1E-04
  | Number of Operations  : 2
  | Space group           : 6
  | International         : Pm      Sei
  | Schoenflies           : Cs^1
  Input structure read successfully.
  The structure contains      162 atoms,  and a total of       2071.000 electrons.

  Input geometry:
  | Unit cell:
  |       13.78710000        0.00000000        0.00000000
  |        0.00000000       13.78710000        0.00000000
  |        0.00000000        0.00000000        8.87670000
  | Atomic structure:
  |       Atom                x [A]            y [A]            z [A]
  |    1: Species Ti            2.29287675        2.29287657        1.47052113
  |    2: Species Ti           -0.00000026       -0.00000017       -0.00000002
  |    3: Species O             0.89517718        3.69967662        1.47915772
  |    4: Species O             3.69963628        0.89513647        1.47915755
  |    5: Species O             1.40162641        1.40166793        0.00000001
  |    6: Species O             3.18562342        3.18558292        0.00000001
  |    7: Species Ti            2.26674590        2.26675078        4.43835007
  |    8: Species Ti           -0.00000016       -0.00000015        2.94524751
  |    9: Species O             0.89167300        3.69576619        4.43835001
  |   10: Species O             3.69572598        0.89163162        4.43835001
  |   11: Species O             1.39912242        1.39916444        2.95826104
  |   12: Species O             3.18356216        3.18352093        2.96078857
  |   13: Species Ti            2.29287689        2.29287671        7.40617887
  |   14: Species Ti           -0.00000015       -0.00000014        5.93145256
  |   15: Species O             0.89517719        3.69967664        7.39754231
  |   16: Species O             3.69963629        0.89513648        7.39754248
  |   17: Species O             1.39912243        1.39916446        5.91843899
  |   18: Species O             3.18356217        3.18352094        5.91591144
  |   19: Species Ti            2.29244037        6.89695666        1.47931059
  |   20: Species Ti            0.00352949        4.59193295        0.00000001
  |   21: Species O             0.89427609        8.30233327        1.47941799
  |   22: Species O             3.69566045        5.47944906        1.47833088
  |   23: Species O             1.40122262        6.00418423        0.00000001
  |   24: Species O             3.19595475        7.78254425        0.00000001
  |   25: Species Ti            2.30548254        6.88722073        4.43834999
  |   26: Species Ti           -0.00290625        4.59751305        2.96158158
  |   27: Species O             0.89198565        8.30180574        4.43835001
  |   28: Species O             3.70179729        5.48563884        4.43835000
  |   29: Species O             1.40496499        6.00159431        2.95934222
  |   30: Species O             3.19144254        7.78924346        2.95918178
  |   31: Species Ti            2.29244042        6.89695668        7.39738938
  |   32: Species Ti           -0.00290626        4.59751311        5.91511848
  |   33: Species O             0.89427608        8.30233327        7.39728203
  |   34: Species O             3.69566045        5.47944907        7.39836913
  |   35: Species O             1.40496498        6.00159432        5.91735779
  |   36: Species O             3.19144254        7.78924345        5.91751823
  |   37: Species Ti            2.29657291       11.49052676        1.47787103
  |   38: Species Ti           -0.00352951        9.19516726        0.00000002
  |   39: Species O             0.89139321       12.89574871        1.47954409
  |   40: Species O             3.70221058       10.08484849        1.47673898
  |   41: Species O             1.40330656       10.59993581        0.00000001
  |   42: Species O             3.18720568       12.38375217        0.00000001
  |   43: Species Ti            2.26914068       11.51795733        4.43834999
  |   44: Species Ti            0.00290637        9.18958690        2.96158163
  |   45: Species O             0.89163456       12.89550727        4.43835001
  |   46: Species O             3.69653831       10.09052079        4.43835000
  |   47: Species O             1.40361743       10.59928753        2.95807346
  |   48: Species O             3.18785349       12.38344173        2.95807307
  |   49: Species Ti            2.29657296       11.49052669        7.39882895
  |   50: Species Ti            0.00290635        9.18958688        5.91511843
  |   51: Species O             0.89139321       12.89574871        7.39715593
  |   52: Species O             3.70221057       10.08484850        7.39996101
  |   53: Species O             1.40361743       10.59928753        5.91862655
  |   54: Species O             3.18785348       12.38344174        5.91862694
  |   55: Species Ti            6.89695680        2.29243999        1.47931040
  |   56: Species Ti            4.59193346        0.00352717        0.00000001
  |   57: Species O             5.47948848        3.69570142        1.47832991
  |   58: Species O             8.30229251        0.89423637        1.47941812
  |   59: Species O             6.00414429        1.40126318        0.00000001
  |   60: Species O             7.78258449        3.19591620        0.00000000
  |   61: Species Ti            6.88721884        2.30547885        4.43834999
  |   62: Species Ti            4.59750921       -0.00290721        2.96158249
  |   63: Species O             5.48567784        3.70183740        4.43835000
  |   64: Species O             8.30176512        0.89194600        4.43835001
  |   65: Species O             6.00155409        1.40500603        2.95934243
  |   66: Species O             7.78928251        3.19140493        2.95918188
  |   67: Species Ti            6.89695680        2.29243997        7.39738959
  |   68: Species Ti            4.59750924       -0.00290725        5.91511756
  |   69: Species O             5.47948848        3.69570141        7.39837009
  |   70: Species O             8.30229252        0.89423637        7.39728190
  |   71: Species O             6.00155409        1.40500602        5.91735758
  |   72: Species O             7.78928251        3.19140493        5.91751814
  |   73: Species Ti            6.89355070        6.89355056        1.45073130
  |   74: Species Ti            4.58536527        4.58536582        0.00000002
  |   75: Species O             5.48970901        8.29742905        1.48208446
  |   76: Species O             8.29739110        5.48967110        1.48208445
  |   77: Species O             5.99926691        5.99930712       -0.00000004
  |   78: Species O             7.78783333        7.78779313       -0.00000003
  |   79: Species Nb            6.89354854        6.89354875        4.43834964
  |   80: Species Ti            4.54651893        4.54651667        2.95098377
  |   81: Species O             5.48061132        8.30652264        4.43835000
  |   82: Species O             8.30648855        5.48057720        4.43835001
  |   83: Species O             5.98963953        5.98967873        2.93963203
  |   84: Species O             7.79746045        7.79742125        2.93963236
  |   85: Species Ti            6.89355068        6.89355060        7.42596814
  |   86: Species Ti            4.54651914        4.54651684        5.92571625
  |   87: Species O             5.48970900        8.29742906        7.39461553
  |   88: Species O             8.29739111        5.48967109        7.39461553
  |   89: Species O             5.98963955        5.98967874        5.93706793
  |   90: Species O             7.79746043        7.79742123        5.93706761
  |   91: Species Ti            6.89014330       11.49465999        1.47931035
  |   92: Species Ti            4.62817000        9.15893019        0.00000003
  |   93: Species O             5.48480752       12.89286368        1.47941814
  |   94: Species O             8.30761150       10.09139859        1.47832991
  |   95: Species O             6.00451552       10.59118390        0.00000000
  |   96: Species O             7.78295578       12.38583682        0.00000001
  |   97: Species Ti            6.89988103       11.48162141        4.43834996
  |   98: Species Ti            4.55587557        9.23122562        2.94654988
  |   99: Species O             5.48533494       12.89515404        4.43835001
  |  100: Species O             8.30142223       10.08526269        4.43835000
  |  101: Species O             5.99781752       10.59569510        2.95918190
  |  102: Species O             7.78554593       12.38209403        2.95934242
  |  103: Species Ti            6.89014335       11.49465994        7.39738963
  |  104: Species Ti            4.55587563        9.23122563        5.93015014
  |  105: Species O             5.48480752       12.89286369        7.39728188
  |  106: Species O             8.30761149       10.09139859        7.39837009
  |  107: Species O             5.99781752       10.59569509        5.91751811
  |  108: Species O             7.78554593       12.38209403        5.91735759
  |  109: Species Ti           11.49052709        2.29657341        1.47787104
  |  110: Species Ti            9.19516679       -0.00352721        0.00000003
  |  111: Species O            10.08488945        3.70225154        1.47673898
  |  112: Species O            12.89570680        0.89135127        1.47954409
  |  113: Species O            10.59989438        1.40334787        0.00000001
  |  114: Species O            12.38379349        3.18716422        0.00000001
  |  115: Species Ti           11.51795928        2.26914267        4.43835001
  |  116: Species Ti            9.18959075        0.00290732        2.96158255
  |  117: Species O            10.09056172        3.69657928        4.43835000
  |  118: Species O            12.89546543        0.89159271        4.43835001
  |  119: Species O            10.59924656        1.40365829        2.95807306
  |  120: Species O            12.38348262        3.18781249        2.95807347
  |  121: Species Ti           11.49052701        2.29657346        7.39882893
  |  122: Species Ti            9.18959070        0.00290729        5.91511750
  |  123: Species O            10.08488945        3.70225154        7.39996102
  |  124: Species O            12.89570680        0.89135126        7.39715594
  |  125: Species O            10.59924656        1.40365828        5.91862695
  |  126: Species O            12.38348261        3.18781248        5.91862655
  |  127: Species Ti           11.49465959        6.89014344        1.47931055
  |  128: Species Ti            9.15893014        4.62816962        0.00000001
  |  129: Species O            10.09143957        8.30765090        1.47833087
  |  130: Species O            12.89282397        5.48476677        1.47941800
  |  131: Species O            10.59114534        6.00455574        0.00000001
  |  132: Species O            12.38587741        7.78291583        0.00000001
  |  133: Species Ti           11.48161774        6.89987918        4.43834999
  |  134: Species Ti            9.23122442        4.55587461        2.94654999
  |  135: Species O            10.08530282        8.30146120        4.43835000
  |  136: Species O            12.89511440        5.48529430        4.43835000
  |  137: Species O            10.59565750        5.99785658        2.95918180
  |  138: Species O            12.38213509        7.78550570        2.95934220
  |  139: Species Ti           11.49465952        6.89014345        7.39738942
  |  140: Species Ti            9.23122433        4.55587465        5.93015002
  |  141: Species O            10.09143957        8.30765089        7.39836913
  |  142: Species O            12.89282397        5.48476676        7.39728203
  |  143: Species O            10.59565751        5.99785658        5.91751822
  |  144: Species O            12.38213509        7.78550569        5.91735780
  |  145: Species Ti           11.49422350       11.49422364        1.47052182
  |  146: Species Ti            9.20173642        9.20173582        0.00000003
  |  147: Species O            10.08746376       12.89196356        1.47915751
  |  148: Species O            12.89192285       10.08742342        1.47915768
  |  149: Species O            10.60147656       10.60151705        0.00000001
  |  150: Species O            12.38547365       12.38543210        0.00000001
  |  151: Species Ti           11.52035287       11.52034796        4.43835006
  |  152: Species Ti            9.24057984        9.24058212        2.95098396
  |  153: Species O            10.09137396       12.89546837        4.43835001
  |  154: Species O            12.89542699       10.09133375        4.43835001
  |  155: Species O            10.60353776       10.60357898        2.96078848
  |  156: Species O            12.38797749       12.38793545        2.95826105
  |  157: Species Ti           11.49422336       11.49422355        7.40617817
  |  158: Species Ti            9.24057966        9.24058193        5.92571604
  |  159: Species O            10.08746375       12.89196355        7.39754251
  |  160: Species O            12.89192285       10.08742341        7.39754234
  |  161: Species O            10.60353775       10.60357897        5.91591154
  |  162: Species O            12.38797748       12.38793544        5.91843897

  Lattice parameters for 3D lattice (in Angstroms) :    13.787100   13.787100    8.876700
  Angle(s) between unit vectors (in degrees)       :    90.000000   90.000000   90.000000


  Quantities derived from the lattice vectors (in Angstrom^-1):
  | Reciprocal lattice vector 1:  0.455729  0.000000  0.000000
  | Reciprocal lattice vector 2:  0.000000  0.455729  0.000000
  | Reciprocal lattice vector 3:  0.000000  0.000000  0.707829
  | Unit cell volume                               :   0.168732E+04  Angstrom^3

  Fractional coordinates:
                         L1                L2                L3
       atom_frac         0.16630595        0.16630594        0.16566079  Ti
       atom_frac        -0.00000002       -0.00000001       -0.00000000  Ti
       atom_frac         0.06492861        0.26834335        0.16663374  O
       atom_frac         0.26834043        0.06492565        0.16663372  O
       atom_frac         0.10166216        0.10166517        0.00000000  O
       atom_frac         0.23105827        0.23105533        0.00000000  O
       atom_frac         0.16441064        0.16441099        0.50000001  Ti
       atom_frac        -0.00000001       -0.00000001        0.33179532  Ti
       atom_frac         0.06467444        0.26805972        0.50000000  O
       atom_frac         0.26805681        0.06467144        0.50000000  O
       atom_frac         0.10148054        0.10148359        0.33326135  O
       atom_frac         0.23090876        0.23090577        0.33354609  O
       atom_frac         0.16630596        0.16630595        0.83433921  Ti
       atom_frac        -0.00000001       -0.00000001        0.66820469  Ti
       atom_frac         0.06492861        0.26834335        0.83336626  O
       atom_frac         0.26834043        0.06492565        0.83336628  O
       atom_frac         0.10148055        0.10148359        0.66673865  O
       atom_frac         0.23090876        0.23090577        0.66645391  O
       atom_frac         0.16627430        0.50024709        0.16665096  Ti
       atom_frac         0.00025600        0.33306010        0.00000000  Ti
       atom_frac         0.06486325        0.60218126        0.16666306  O
       atom_frac         0.26805205        0.39743304        0.16654059  O
       atom_frac         0.10163288        0.43549290        0.00000000  O
       atom_frac         0.23180761        0.56448015        0.00000000  O
       atom_frac         0.16722027        0.49954093        0.50000000  Ti
       atom_frac        -0.00021079        0.33346484        0.33363542  Ti
       atom_frac         0.06469712        0.60214300        0.50000000  O
       atom_frac         0.26849717        0.39788199        0.50000000  O
       atom_frac         0.10190432        0.43530505        0.33338315  O
       atom_frac         0.23148034        0.56496605        0.33336508  O
       atom_frac         0.16627430        0.50024709        0.83334904  Ti
       atom_frac        -0.00021080        0.33346484        0.66636458  Ti
       atom_frac         0.06486325        0.60218126        0.83333694  O
       atom_frac         0.26805205        0.39743304        0.83345941  O
       atom_frac         0.10190432        0.43530505        0.66661685  O
       atom_frac         0.23148034        0.56496605        0.66663492  O
       atom_frac         0.16657404        0.83342594        0.16648879  Ti
       atom_frac        -0.00025600        0.66693991        0.00000000  Ti
       atom_frac         0.06465415        0.93534889        0.16667727  O
       atom_frac         0.26852714        0.73146989        0.16636126  O
       atom_frac         0.10178403        0.76882998        0.00000000  O
       atom_frac         0.23117303        0.89821298        0.00000000  O
       atom_frac         0.16458433        0.83541552        0.50000000  Ti
       atom_frac         0.00021080        0.66653516        0.33363543  Ti
       atom_frac         0.06467165        0.93533138        0.50000000  O
       atom_frac         0.26811572        0.73188131        0.50000000  O
       atom_frac         0.10180658        0.76878296        0.33324022  O
       atom_frac         0.23122002        0.89819046        0.33324018  O
       atom_frac         0.16657404        0.83342593        0.83351121  Ti
       atom_frac         0.00021080        0.66653516        0.66636458  Ti
       atom_frac         0.06465415        0.93534889        0.83332274  O
       atom_frac         0.26852714        0.73146989        0.83363874  O
       atom_frac         0.10180657        0.76878296        0.66675978  O
       atom_frac         0.23122002        0.89819046        0.66675983  O
       atom_frac         0.50024710        0.16627427        0.16665094  Ti
       atom_frac         0.33306014        0.00025583        0.00000000  Ti
       atom_frac         0.39743590        0.26805502        0.16654048  O
       atom_frac         0.60217831        0.06486037        0.16666308  O
       atom_frac         0.43549001        0.10163582        0.00000000  O
       atom_frac         0.56448307        0.23180482        0.00000000  O
       atom_frac         0.49954079        0.16722000        0.50000000  Ti
       atom_frac         0.33346456       -0.00021086        0.33363553  Ti
       atom_frac         0.39788482        0.26850008        0.50000000  O
       atom_frac         0.60214005        0.06469424        0.50000000  O
       atom_frac         0.43530214        0.10190729        0.33338318  O
       atom_frac         0.56496888        0.23147761        0.33336509  O
       atom_frac         0.50024710        0.16627427        0.83334906  Ti
       atom_frac         0.33346456       -0.00021087        0.66636448  Ti
       atom_frac         0.39743590        0.26805502        0.83345952  O
       atom_frac         0.60217831        0.06486037        0.83333693  O
       atom_frac         0.43530214        0.10190729        0.66661683  O
       atom_frac         0.56496888        0.23147761        0.66663491  O
       atom_frac         0.50000005        0.50000004        0.16343138  Ti
       atom_frac         0.33258374        0.33258378        0.00000000  Ti
       atom_frac         0.39817721        0.60182555        0.16696345  O
       atom_frac         0.60182280        0.39817446        0.16696345  O
       atom_frac         0.43513624        0.43513916       -0.00000000  O
       atom_frac         0.56486377        0.56486086       -0.00000000  O
       atom_frac         0.49999989        0.49999991        0.49999996  Nb
       atom_frac         0.32976615        0.32976599        0.33244153  Ti
       atom_frac         0.39751734        0.60248512        0.50000000  O
       atom_frac         0.60248265        0.39751487        0.50000000  O
       atom_frac         0.43443796        0.43444080        0.33116271  O
       atom_frac         0.56556204        0.56555920        0.33116275  O
       atom_frac         0.50000005        0.50000004        0.83656856  Ti
       atom_frac         0.32976617        0.32976600        0.66755847  Ti
       atom_frac         0.39817721        0.60182555        0.83303655  O
       atom_frac         0.60182280        0.39817446        0.83303655  O
       atom_frac         0.43443796        0.43444080        0.66883729  O
       atom_frac         0.56556204        0.56555920        0.66883725  O
       atom_frac         0.49975291        0.83372573        0.16665093  Ti
       atom_frac         0.33568843        0.66431158        0.00000000  Ti
       atom_frac         0.39782170        0.93513964        0.16666308  O
       atom_frac         0.60256410        0.73194498        0.16654048  O
       atom_frac         0.43551693        0.76819519        0.00000000  O
       atom_frac         0.56451000        0.89836418        0.00000000  O
       atom_frac         0.50045920        0.83278002        0.50000000  Ti
       atom_frac         0.33044480        0.66955528        0.33194204  Ti
       atom_frac         0.39785995        0.93530576        0.50000000  O
       atom_frac         0.60211518        0.73149993        0.50000000  O
       atom_frac         0.43503112        0.76852239        0.33336509  O
       atom_frac         0.56469786        0.89809271        0.33338317  O
       atom_frac         0.49975291        0.83372572        0.83334906  Ti
       atom_frac         0.33044481        0.66955528        0.66805797  Ti
       atom_frac         0.39782170        0.93513964        0.83333692  O
       atom_frac         0.60256410        0.73194498        0.83345952  O
       atom_frac         0.43503112        0.76852239        0.66663491  O
       atom_frac         0.56469786        0.89809271        0.66661683  O
       atom_frac         0.83342596        0.16657407        0.16648879  Ti
       atom_frac         0.66693988       -0.00025583        0.00000000  Ti
       atom_frac         0.73147286        0.26853011        0.16636126  O
       atom_frac         0.93534585        0.06465111        0.16667727  O
       atom_frac         0.76882697        0.10178702        0.00000000  O
       atom_frac         0.89821598        0.23117002        0.00000000  O
       atom_frac         0.83541566        0.16458448        0.50000000  Ti
       atom_frac         0.66653544        0.00021087        0.33363553  Ti
       atom_frac         0.73188428        0.26811870        0.50000000  O
       atom_frac         0.93532835        0.06466862        0.50000000  O
       atom_frac         0.76877999        0.10180954        0.33324018  O
       atom_frac         0.89819343        0.23121704        0.33324022  O
       atom_frac         0.83342596        0.16657408        0.83351121  Ti
       atom_frac         0.66653544        0.00021087        0.66636447  Ti
       atom_frac         0.73147286        0.26853011        0.83363874  O
       atom_frac         0.93534585        0.06465111        0.83332274  O
       atom_frac         0.76877999        0.10180954        0.66675983  O
       atom_frac         0.89819343        0.23121704        0.66675978  O
       atom_frac         0.83372570        0.49975292        0.16665096  Ti
       atom_frac         0.66431158        0.33568841        0.00000000  Ti
       atom_frac         0.73194795        0.60256696        0.16654059  O
       atom_frac         0.93513676        0.39781874        0.16666306  O
       atom_frac         0.76819239        0.43551985        0.00000000  O
       atom_frac         0.89836713        0.56450710        0.00000000  O
       atom_frac         0.83277975        0.50045907        0.50000000  Ti
       atom_frac         0.66955519        0.33044474        0.33194205  Ti
       atom_frac         0.73150284        0.60211801        0.50000000  O
       atom_frac         0.93530288        0.39785700        0.50000000  O
       atom_frac         0.76851967        0.43503395        0.33336508  O
       atom_frac         0.89809569        0.56469495        0.33338315  O
       atom_frac         0.83372569        0.49975292        0.83334904  Ti
       atom_frac         0.66955519        0.33044474        0.66805795  Ti
       atom_frac         0.73194795        0.60256696        0.83345941  O
       atom_frac         0.93513676        0.39781874        0.83333694  O
       atom_frac         0.76851967        0.43503395        0.66663492  O
       atom_frac         0.89809569        0.56469495        0.66661685  O
       atom_frac         0.83369407        0.83369408        0.16566087  Ti
       atom_frac         0.66741638        0.66741634        0.00000000  Ti
       atom_frac         0.73165958        0.93507435        0.16663372  O
       atom_frac         0.93507140        0.73165665        0.16663374  O
       atom_frac         0.76894173        0.76894467        0.00000000  O
       atom_frac         0.89833784        0.89833483        0.00000000  O
       atom_frac         0.83558927        0.83558892        0.50000001  Ti
       atom_frac         0.67023376        0.67023392        0.33244156  Ti
       atom_frac         0.73194319        0.93532856        0.50000000  O
       atom_frac         0.93532556        0.73194027        0.50000000  O
       atom_frac         0.76909123        0.76909422        0.33354608  O
       atom_frac         0.89851945        0.89851640        0.33326135  O
       atom_frac         0.83369406        0.83369407        0.83433913  Ti
       atom_frac         0.67023374        0.67023391        0.66755844  Ti
       atom_frac         0.73165958        0.93507435        0.83336629  O
       atom_frac         0.93507140        0.73165665        0.83336627  O
       atom_frac         0.76909123        0.76909422        0.66645392  O
       atom_frac         0.89851945        0.89851640        0.66673865  O

 
  Finished reading input file 'geometry.in'.
 

 
  Consistency checks for stacksize environment parameter are next.
 
  | Maximum stacksize for task 0: unlimited
  | Maximum stacksize for task 1: unlimited
  | Maximum stacksize for task 2: unlimited
  | Maximum stacksize for task 3: unlimited
  | Maximum stacksize for task 4: unlimited
  | Maximum stacksize for task 5: unlimited
  | Maximum stacksize for task 6: unlimited
  | Maximum stacksize for task 7: unlimited
  | Maximum stacksize for task 8: unlimited
  | Maximum stacksize for task 9: unlimited
  | Maximum stacksize for task 10: unlimited
  | Maximum stacksize for task 11: unlimited
  | Maximum stacksize for task 12: unlimited
  | Maximum stacksize for task 13: unlimited
  | Maximum stacksize for task 14: unlimited
  | Maximum stacksize for task 15: unlimited
  | Maximum stacksize for task 16: unlimited
  | Maximum stacksize for task 17: unlimited
  | Maximum stacksize for task 18: unlimited
  | Maximum stacksize for task 19: unlimited
  | Maximum stacksize for task 20: unlimited
  | Maximum stacksize for task 21: unlimited
  | Maximum stacksize for task 22: unlimited
  | Maximum stacksize for task 23: unlimited
  | Maximum stacksize for task 24: unlimited
  | Maximum stacksize for task 25: unlimited
  | Maximum stacksize for task 26: unlimited
  | Maximum stacksize for task 27: unlimited
  | Maximum stacksize for task 28: unlimited
  | Maximum stacksize for task 29: unlimited
  | Maximum stacksize for task 30: unlimited
  | Maximum stacksize for task 31: unlimited
  | Maximum stacksize for task 32: unlimited
  | Maximum stacksize for task 33: unlimited
  | Maximum stacksize for task 34: unlimited
  | Maximum stacksize for task 35: unlimited
  | Maximum stacksize for task 36: unlimited
  | Maximum stacksize for task 37: unlimited
  | Maximum stacksize for task 38: unlimited
  | Maximum stacksize for task 39: unlimited
  | Maximum stacksize for task 40: unlimited
  | Maximum stacksize for task 41: unlimited
  | Maximum stacksize for task 42: unlimited
  | Maximum stacksize for task 43: unlimited
  | Maximum stacksize for task 44: unlimited
  | Maximum stacksize for task 45: unlimited
  | Maximum stacksize for task 46: unlimited
  | Maximum stacksize for task 47: unlimited
  | Maximum stacksize for task 48: unlimited
  | Maximum stacksize for task 49: unlimited
  | Maximum stacksize for task 50: unlimited
  | Maximum stacksize for task 51: unlimited
  | Maximum stacksize for task 52: unlimited
  | Maximum stacksize for task 53: unlimited
  | Maximum stacksize for task 54: unlimited
  | Maximum stacksize for task 55: unlimited
  | Maximum stacksize for task 56: unlimited
  | Maximum stacksize for task 57: unlimited
  | Maximum stacksize for task 58: unlimited
  | Maximum stacksize for task 59: unlimited
  | Maximum stacksize for task 60: unlimited
  | Maximum stacksize for task 61: unlimited
  | Maximum stacksize for task 62: unlimited
  | Maximum stacksize for task 63: unlimited
  | Maximum stacksize for task 64: unlimited
  | Maximum stacksize for task 65: unlimited
  | Maximum stacksize for task 66: unlimited
  | Maximum stacksize for task 67: unlimited
  | Maximum stacksize for task 68: unlimited
  | Maximum stacksize for task 69: unlimited
  | Maximum stacksize for task 70: unlimited
  | Maximum stacksize for task 71: unlimited
  | Maximum stacksize for task 72: unlimited
  | Maximum stacksize for task 73: unlimited
  | Maximum stacksize for task 74: unlimited
  | Maximum stacksize for task 75: unlimited
  | Maximum stacksize for task 76: unlimited
  | Maximum stacksize for task 77: unlimited
  | Maximum stacksize for task 78: unlimited
  | Maximum stacksize for task 79: unlimited
  | Maximum stacksize for task 80: unlimited
  | Maximum stacksize for task 81: unlimited
  | Maximum stacksize for task 82: unlimited
  | Maximum stacksize for task 83: unlimited
  | Maximum stacksize for task 84: unlimited
  | Maximum stacksize for task 85: unlimited
  | Maximum stacksize for task 86: unlimited
  | Maximum stacksize for task 87: unlimited
  | Maximum stacksize for task 88: unlimited
  | Maximum stacksize for task 89: unlimited
  | Maximum stacksize for task 90: unlimited
  | Maximum stacksize for task 91: unlimited
  | Maximum stacksize for task 92: unlimited
  | Maximum stacksize for task 93: unlimited
  | Maximum stacksize for task 94: unlimited
  | Maximum stacksize for task 95: unlimited
  | Maximum stacksize for task 96: unlimited
  | Maximum stacksize for task 97: unlimited
  | Maximum stacksize for task 98: unlimited
  | Maximum stacksize for task 99: unlimited
  | Maximum stacksize for task 100: unlimited
  | Maximum stacksize for task 101: unlimited
  | Maximum stacksize for task 102: unlimited
  | Maximum stacksize for task 103: unlimited
  | Maximum stacksize for task 104: unlimited
  | Maximum stacksize for task 105: unlimited
  | Maximum stacksize for task 106: unlimited
  | Maximum stacksize for task 107: unlimited
  | Maximum stacksize for task 108: unlimited
  | Maximum stacksize for task 109: unlimited
  | Maximum stacksize for task 110: unlimited
  | Maximum stacksize for task 111: unlimited
  | Maximum stacksize for task 112: unlimited
  | Maximum stacksize for task 113: unlimited
  | Maximum stacksize for task 114: unlimited
  | Maximum stacksize for task 115: unlimited
  | Maximum stacksize for task 116: unlimited
  | Maximum stacksize for task 117: unlimited
  | Maximum stacksize for task 118: unlimited
  | Maximum stacksize for task 119: unlimited
  | Maximum stacksize for task 120: unlimited
  | Maximum stacksize for task 121: unlimited
  | Maximum stacksize for task 122: unlimited
  | Maximum stacksize for task 123: unlimited
  | Maximum stacksize for task 124: unlimited
  | Maximum stacksize for task 125: unlimited
  | Maximum stacksize for task 126: unlimited
  | Maximum stacksize for task 127: unlimited
  | Maximum stacksize for task 128: unlimited
  | Maximum stacksize for task 129: unlimited
  | Maximum stacksize for task 130: unlimited
  | Maximum stacksize for task 131: unlimited
  | Maximum stacksize for task 132: unlimited
  | Maximum stacksize for task 133: unlimited
  | Maximum stacksize for task 134: unlimited
  | Maximum stacksize for task 135: unlimited
  | Maximum stacksize for task 136: unlimited
  | Maximum stacksize for task 137: unlimited
  | Maximum stacksize for task 138: unlimited
  | Maximum stacksize for task 139: unlimited
  | Maximum stacksize for task 140: unlimited
  | Maximum stacksize for task 141: unlimited
  | Maximum stacksize for task 142: unlimited
  | Maximum stacksize for task 143: unlimited
  | Maximum stacksize for task 144: unlimited
  | Maximum stacksize for task 145: unlimited
  | Maximum stacksize for task 146: unlimited
  | Maximum stacksize for task 147: unlimited
  | Maximum stacksize for task 148: unlimited
  | Maximum stacksize for task 149: unlimited
  | Maximum stacksize for task 150: unlimited
  | Maximum stacksize for task 151: unlimited
  | Maximum stacksize for task 152: unlimited
  | Maximum stacksize for task 153: unlimited
  | Maximum stacksize for task 154: unlimited
  | Maximum stacksize for task 155: unlimited
  | Maximum stacksize for task 156: unlimited
  | Maximum stacksize for task 157: unlimited
  | Maximum stacksize for task 158: unlimited
  | Maximum stacksize for task 159: unlimited
  | Maximum stacksize for task 160: unlimited
  | Maximum stacksize for task 161: unlimited
  | Maximum stacksize for task 162: unlimited
  | Maximum stacksize for task 163: unlimited
  | Maximum stacksize for task 164: unlimited
  | Maximum stacksize for task 165: unlimited
  | Maximum stacksize for task 166: unlimited
  | Maximum stacksize for task 167: unlimited
  | Maximum stacksize for task 168: unlimited
  | Maximum stacksize for task 169: unlimited
  | Maximum stacksize for task 170: unlimited
  | Maximum stacksize for task 171: unlimited
  | Maximum stacksize for task 172: unlimited
  | Maximum stacksize for task 173: unlimited
  | Maximum stacksize for task 174: unlimited
  | Maximum stacksize for task 175: unlimited
  | Maximum stacksize for task 176: unlimited
  | Maximum stacksize for task 177: unlimited
  | Maximum stacksize for task 178: unlimited
  | Maximum stacksize for task 179: unlimited
  | Maximum stacksize for task 180: unlimited
  | Maximum stacksize for task 181: unlimited
  | Maximum stacksize for task 182: unlimited
  | Maximum stacksize for task 183: unlimited
  | Maximum stacksize for task 184: unlimited
  | Maximum stacksize for task 185: unlimited
  | Maximum stacksize for task 186: unlimited
  | Maximum stacksize for task 187: unlimited
[...]
  | writing   projected DOS (shifted by the chemical potential) for species Ti to file atom_proj_dos_Ti0103.dat.
  | writing   projected DOS (raw data) for species Ti to file atom_proj_dos_Ti0103_raw.dat.
  | writing   projected DOS (shifted by the chemical potential) for species Ti to file atom_proj_dos_Ti0104.dat.
  | writing   projected DOS (raw data) for species Ti to file atom_proj_dos_Ti0104_raw.dat.
  | writing   projected DOS (shifted by the chemical potential) for species O to file atom_proj_dos_O0105.dat.
  | writing   projected DOS (raw data) for species O to file atom_proj_dos_O0105_raw.dat.
  | writing   projected DOS (shifted by the chemical potential) for species O to file atom_proj_dos_O0106.dat.
  | writing   projected DOS (raw data) for species O to file atom_proj_dos_O0106_raw.dat.
  | writing   projected DOS (shifted by the chemical potential) for species O to file atom_proj_dos_O0107.dat.
  | writing   projected DOS (raw data) for species O to file atom_proj_dos_O0107_raw.dat.
  | writing   projected DOS (shifted by the chemical potential) for species O to file atom_proj_dos_O0108.dat.
  | writing   projected DOS (raw data) for species O to file atom_proj_dos_O0108_raw.dat.
  | writing   projected DOS (shifted by the chemical potential) for species Ti to file atom_proj_dos_Ti0109.dat.
  | writing   projected DOS (raw data) for species Ti to file atom_proj_dos_Ti0109_raw.dat.
  | writing   projected DOS (shifted by the chemical potential) for species Ti to file atom_proj_dos_Ti0110.dat.
  | writing   projected DOS (raw data) for species Ti to file atom_proj_dos_Ti0110_raw.dat.
  | writing   projected DOS (shifted by the chemical potential) for species O to file atom_proj_dos_O0111.dat.
  | writing   projected DOS (raw data) for species O to file atom_proj_dos_O0111_raw.dat.
  | writing   projected DOS (shifted by the chemical potential) for species O to file atom_proj_dos_O0112.dat.
  | writing   projected DOS (raw data) for species O to file atom_proj_dos_O0112_raw.dat.
  | writing   projected DOS (shifted by the chemical potential) for species O to file atom_proj_dos_O0113.dat.
  | writing   projected DOS (raw data) for species O to file atom_proj_dos_O0113_raw.dat.
  | writing   projected DOS (shifted by the chemical potential) for species O to file atom_proj_dos_O0114.dat.
  | writing   projected DOS (raw data) for species O to file atom_proj_dos_O0114_raw.dat.
  | writing   projected DOS (shifted by the chemical potential) for species Ti to file atom_proj_dos_Ti0115.dat.
  | writing   projected DOS (raw data) for species Ti to file atom_proj_dos_Ti0115_raw.dat.
  | writing   projected DOS (shifted by the chemical potential) for species Ti to file atom_proj_dos_Ti0116.dat.
  | writing   projected DOS (raw data) for species Ti to file atom_proj_dos_Ti0116_raw.dat.
  | writing   projected DOS (shifted by the chemical potential) for species O to file atom_proj_dos_O0117.dat.
  | writing   projected DOS (raw data) for species O to file atom_proj_dos_O0117_raw.dat.
  | writing   projected DOS (shifted by the chemical potential) for species O to file atom_proj_dos_O0118.dat.
  | writing   projected DOS (raw data) for species O to file atom_proj_dos_O0118_raw.dat.
  | writing   projected DOS (shifted by the chemical potential) for species O to file atom_proj_dos_O0119.dat.
  | writing   projected DOS (raw data) for species O to file atom_proj_dos_O0119_raw.dat.
  | writing   projected DOS (shifted by the chemical potential) for species O to file atom_proj_dos_O0120.dat.
  | writing   projected DOS (raw data) for species O to file atom_proj_dos_O0120_raw.dat.
  | writing   projected DOS (shifted by the chemical potential) for species Ti to file atom_proj_dos_Ti0121.dat.
  | writing   projected DOS (raw data) for species Ti to file atom_proj_dos_Ti0121_raw.dat.
  | writing   projected DOS (shifted by the chemical potential) for species Ti to file atom_proj_dos_Ti0122.dat.
  | writing   projected DOS (raw data) for species Ti to file atom_proj_dos_Ti0122_raw.dat.
  | writing   projected DOS (shifted by the chemical potential) for species O to file atom_proj_dos_O0123.dat.
  | writing   projected DOS (raw data) for species O to file atom_proj_dos_O0123_raw.dat.
  | writing   projected DOS (shifted by the chemical potential) for species O to file atom_proj_dos_O0124.dat.
  | writing   projected DOS (raw data) for species O to file atom_proj_dos_O0124_raw.dat.
  | writing   projected DOS (shifted by the chemical potential) for species O to file atom_proj_dos_O0125.dat.
  | writing   projected DOS (raw data) for species O to file atom_proj_dos_O0125_raw.dat.
  | writing   projected DOS (shifted by the chemical potential) for species O to file atom_proj_dos_O0126.dat.
  | writing   projected DOS (raw data) for species O to file atom_proj_dos_O0126_raw.dat.
  | writing   projected DOS (shifted by the chemical potential) for species Ti to file atom_proj_dos_Ti0127.dat.
  | writing   projected DOS (raw data) for species Ti to file atom_proj_dos_Ti0127_raw.dat.
  | writing   projected DOS (shifted by the chemical potential) for species Ti to file atom_proj_dos_Ti0128.dat.
  | writing   projected DOS (raw data) for species Ti to file atom_proj_dos_Ti0128_raw.dat.
  | writing   projected DOS (shifted by the chemical potential) for species O to file atom_proj_dos_O0129.dat.
  | writing   projected DOS (raw data) for species O to file atom_proj_dos_O0129_raw.dat.
  | writing   projected DOS (shifted by the chemical potential) for species O to file atom_proj_dos_O0130.dat.
  | writing   projected DOS (raw data) for species O to file atom_proj_dos_O0130_raw.dat.
  | writing   projected DOS (shifted by the chemical potential) for species O to file atom_proj_dos_O0131.dat.
  | writing   projected DOS (raw data) for species O to file atom_proj_dos_O0131_raw.dat.
  | writing   projected DOS (shifted by the chemical potential) for species O to file atom_proj_dos_O0132.dat.
  | writing   projected DOS (raw data) for species O to file atom_proj_dos_O0132_raw.dat.
  | writing   projected DOS (shifted by the chemical potential) for species Ti to file atom_proj_dos_Ti0133.dat.
  | writing   projected DOS (raw data) for species Ti to file atom_proj_dos_Ti0133_raw.dat.
  | writing   projected DOS (shifted by the chemical potential) for species Ti to file atom_proj_dos_Ti0134.dat.
  | writing   projected DOS (raw data) for species Ti to file atom_proj_dos_Ti0134_raw.dat.
  | writing   projected DOS (shifted by the chemical potential) for species O to file atom_proj_dos_O0135.dat.
  | writing   projected DOS (raw data) for species O to file atom_proj_dos_O0135_raw.dat.
  | writing   projected DOS (shifted by the chemical potential) for species O to file atom_proj_dos_O0136.dat.
  | writing   projected DOS (raw data) for species O to file atom_proj_dos_O0136_raw.dat.
  | writing   projected DOS (shifted by the chemical potential) for species O to file atom_proj_dos_O0137.dat.
  | writing   projected DOS (raw data) for species O to file atom_proj_dos_O0137_raw.dat.
  | writing   projected DOS (shifted by the chemical potential) for species O to file atom_proj_dos_O0138.dat.
  | writing   projected DOS (raw data) for species O to file atom_proj_dos_O0138_raw.dat.
  | writing   projected DOS (shifted by the chemical potential) for species Ti to file atom_proj_dos_Ti0139.dat.
  | writing   projected DOS (raw data) for species Ti to file atom_proj_dos_Ti0139_raw.dat.
  | writing   projected DOS (shifted by the chemical potential) for species Ti to file atom_proj_dos_Ti0140.dat.
  | writing   projected DOS (raw data) for species Ti to file atom_proj_dos_Ti0140_raw.dat.
  | writing   projected DOS (shifted by the chemical potential) for species O to file atom_proj_dos_O0141.dat.
  | writing   projected DOS (raw data) for species O to file atom_proj_dos_O0141_raw.dat.
  | writing   projected DOS (shifted by the chemical potential) for species O to file atom_proj_dos_O0142.dat.
  | writing   projected DOS (raw data) for species O to file atom_proj_dos_O0142_raw.dat.
  | writing   projected DOS (shifted by the chemical potential) for species O to file atom_proj_dos_O0143.dat.
  | writing   projected DOS (raw data) for species O to file atom_proj_dos_O0143_raw.dat.
  | writing   projected DOS (shifted by the chemical potential) for species O to file atom_proj_dos_O0144.dat.
  | writing   projected DOS (raw data) for species O to file atom_proj_dos_O0144_raw.dat.
  | writing   projected DOS (shifted by the chemical potential) for species Ti to file atom_proj_dos_Ti0145.dat.
  | writing   projected DOS (raw data) for species Ti to file atom_proj_dos_Ti0145_raw.dat.
  | writing   projected DOS (shifted by the chemical potential) for species Ti to file atom_proj_dos_Ti0146.dat.
  | writing   projected DOS (raw data) for species Ti to file atom_proj_dos_Ti0146_raw.dat.
  | writing   projected DOS (shifted by the chemical potential) for species O to file atom_proj_dos_O0147.dat.
  | writing   projected DOS (raw data) for species O to file atom_proj_dos_O0147_raw.dat.
  | writing   projected DOS (shifted by the chemical potential) for species O to file atom_proj_dos_O0148.dat.
  | writing   projected DOS (raw data) for species O to file atom_proj_dos_O0148_raw.dat.
  | writing   projected DOS (shifted by the chemical potential) for species O to file atom_proj_dos_O0149.dat.
  | writing   projected DOS (raw data) for species O to file atom_proj_dos_O0149_raw.dat.
  | writing   projected DOS (shifted by the chemical potential) for species O to file atom_proj_dos_O0150.dat.
  | writing   projected DOS (raw data) for species O to file atom_proj_dos_O0150_raw.dat.
  | writing   projected DOS (shifted by the chemical potential) for species Ti to file atom_proj_dos_Ti0151.dat.
  | writing   projected DOS (raw data) for species Ti to file atom_proj_dos_Ti0151_raw.dat.
  | writing   projected DOS (shifted by the chemical potential) for species Ti to file atom_proj_dos_Ti0152.dat.
  | writing   projected DOS (raw data) for species Ti to file atom_proj_dos_Ti0152_raw.dat.
  | writing   projected DOS (shifted by the chemical potential) for species O to file atom_proj_dos_O0153.dat.
  | writing   projected DOS (raw data) for species O to file atom_proj_dos_O0153_raw.dat.
  | writing   projected DOS (shifted by the chemical potential) for species O to file atom_proj_dos_O0154.dat.
  | writing   projected DOS (raw data) for species O to file atom_proj_dos_O0154_raw.dat.
  | writing   projected DOS (shifted by the chemical potential) for species O to file atom_proj_dos_O0155.dat.
  | writing   projected DOS (raw data) for species O to file atom_proj_dos_O0155_raw.dat.
  | writing   projected DOS (shifted by the chemical potential) for species O to file atom_proj_dos_O0156.dat.
  | writing   projected DOS (raw data) for species O to file atom_proj_dos_O0156_raw.dat.
  | writing   projected DOS (shifted by the chemical potential) for species Ti to file atom_proj_dos_Ti0157.dat.
  | writing   projected DOS (raw data) for species Ti to file atom_proj_dos_Ti0157_raw.dat.
  | writing   projected DOS (shifted by the chemical potential) for species Ti to file atom_proj_dos_Ti0158.dat.
  | writing   projected DOS (raw data) for species Ti to file atom_proj_dos_Ti0158_raw.dat.
  | writing   projected DOS (shifted by the chemical potential) for species O to file atom_proj_dos_O0159.dat.
  | writing   projected DOS (raw data) for species O to file atom_proj_dos_O0159_raw.dat.
  | writing   projected DOS (shifted by the chemical potential) for species O to file atom_proj_dos_O0160.dat.
  | writing   projected DOS (raw data) for species O to file atom_proj_dos_O0160_raw.dat.
  | writing   projected DOS (shifted by the chemical potential) for species O to file atom_proj_dos_O0161.dat.
  | writing   projected DOS (raw data) for species O to file atom_proj_dos_O0161_raw.dat.
  | writing   projected DOS (shifted by the chemical potential) for species O to file atom_proj_dos_O0162.dat.
  | writing   projected DOS (raw data) for species O to file atom_proj_dos_O0162_raw.dat.
  Mulliken analysis                                       :  max(cpu_time)    wall_clock(cpu1)
  | Time for Mulliken analysis                            :          0.915               1.122
  | Total time for Mulliken analysis                      :          0.915               1.122
------------------------------------------------------------

------------------------------------------------------------------------------
  Final output of selected total energy values:

  The following output summarizes some interesting total energy values
  at the end of a run (AFTER all relaxation, molecular dynamics, etc.).

  | Total energy of the DFT / Hartree-Fock s.c.f. calculation      :       -1564243.641501501 eV
  | Final zero-broadening corrected energy (caution - metals only) :       -1564243.680040064 eV
  | For reference only, the value of 1 Hartree used in FHI-aims is :             27.211384500 eV
  | For reference only, the overall average (free atom contribution
  | + realspace contribution) of the electrostatic potential after
  | s.c.f. convergence is                                          :            -17.384627087 eV

  Before relying on these values, please be sure to understand exactly which
  total energy value is referred to by a given number. Different objects may
  all carry the same name 'total energy'. Definitions:

  Total energy of the DFT / Hartree-Fock s.c.f. calculation:
  | Note that this energy does not include ANY quantities calculated after the
  | s.c.f. cycle, in particular not ANY RPA, MP2, etc. many-body perturbation terms.

  Final zero-broadening corrected energy:
  | For metallic systems only, a broadening of the occupation numbers at the Fermi
  | level can be extrapolated back to zero broadening by an electron-gas inspired
  | formula. For all systems that are not real metals, this value can be
  | meaningless and should be avoided.

------------------------------------------------------------------------------
  Methods described in the following list of references were used in this FHI-aims run.
  If you publish the results, please make sure to cite these reference if they apply.
  FHI-aims is an academic code, and for our developers (often, Ph.D. students
  and postdocs), scientific credit in the community is essential.
  Thank you for helping us!

  For any use of FHI-aims, please cite:

    Volker Blum, Ralf Gehrke, Felix Hanke, Paula Havu, Ville Havu,
    Xinguo Ren, Karsten Reuter, and Matthias Scheffler
    'Ab initio molecular simulations with numeric atom-centered orbitals'
    Computer Physics Communications 180, 2175-2196 (2009)
    http://doi.org/10.1016/j.cpc.2009.06.022


  The provided symmetry information was generated with SPGlib:

    Atsushi Togo, Yusuke Seto, Dimitar Pashov
    SPGlib 1.7.3 obtained from http://spglib.sourceforge.net
    Copyright (C) 2008 Atsushi Togo


 DFT+U infrastructure was used in your run
 please cite:

 Matthias Kick, Karsten Reuter and Harald Oberhofer,
 Intricacies Of DFT+U, not only in a Numeric Atom Centered Orbital Framework

 Journal of Chemical Theory and Computation
 https://


  The ELSI infrastructure was used in your run to solve the Kohn-Sham electronic structure.
  Please check out http://elsi-interchange.org to learn more.
  If scalability is important for your project, please acknowledge ELSI by citing:

    V. W-z. Yu, F. Corsetti, A. Garcia, W. P. Huhn, M. Jacquelin, W. Jia,
    B. Lange, L. Lin, J. Lu, W. Mi, A. Seifitokaldani, A. Vazquez-Mayagoitia,
    C. Yang, H. Yang, and V. Blum
    'ELSI: A unified software interface for Kohn-Sham electronic structure solvers'
    Computer Physics Communications 222, 267-285 (2018).
    http://doi.org/10.1016/j.cpc.2017.09.007


  For the real-space grid partitioning and parallelization used in this calculation, please cite:

    Ville Havu, Volker Blum, Paula Havu, and Matthias Scheffler,
    'Efficient O(N) integration for all-electron electronic structure calculation'
    'using numerically tabulated basis functions'
    Journal of Computational Physics 228, 8367-8379 (2009).
    http://doi.org/10.1016/j.jcp.2009.08.008

  Of course, there are many other important community references, e.g., those cited in the
  above references. Our list is limited to references that describe implementations in the
  FHI-aims code. The reason is purely practical (length of this list) - please credit others as well.

 * A warning was issued further up regarding the accuracy of onsite integrals.
   An integral with a negative eigenvalue was among the flagged integrals.
   In most standard situations, this warning is probably harmless.
   If needed, this can be verified by adjusting the radial_multiplier flag.

   One or more s.c.f. cycles took more than 50 s.c.f. iterations.
   It might be worth adjusting your convergence settings. For example,
   metals need a larger broadening and a smaller "charge_mix_param" value than semiconductors.

------------------------------------------------------------
          Leaving FHI-aims.
          Date     :  20240717, Time     :  091141.656

          Computational steps:
          | Number of self-consistency cycles          :           78
          | Number of SCF (re)initializations          :            1

          Detailed time accounting                     :  max(cpu_time)    wall_clock(cpu1)
          | Total time                                  :      695.250 s         697.889 s
          | Preparation time                            :        0.865 s           0.863 s
          | Boundary condition initalization            :        0.262 s           0.262 s
          | Grid partitioning                           :        0.492 s           0.493 s
          | Preloading free-atom quantities on grid     :        0.684 s           0.687 s
          | Free-atom superposition energy              :        0.102 s           0.102 s
          | Total time for integrations                 :      119.920 s         120.200 s
          | Total time for solution of K.-S. equations  :      193.839 s         165.410 s
          | Total time for density & force components   :      176.559 s         176.991 s
          | Total time for mixing & preconditioning     :      135.576 s         135.510 s
          | Total time for Hartree multipole update     :        0.928 s           0.970 s
          | Total time for Hartree multipole sum        :       33.703 s          33.787 s
          | Total time for total energy evaluation      :        0.363 s           0.183 s
          | Total time NSC force correction             :        2.333 s           2.369 s
          | Total time for scaled ZORA corrections      :        0.000 s           0.000 s
          | Total time for band structures, DOS         :        0.017 s           0.009 s
          | Total time for Mulliken analysis            :        1.120 s           1.122 s

          Partial memory accounting:
          | Residual value for overall tracked memory usage across tasks:     0.000000 MB (should be 0.000000 MB)
          | Peak values for overall tracked memory usage:
          |   Minimum:      206.799 MB (on task  24 after allocating temp_ham_ovlp)
          |   Maximum:      207.091 MB (on task   0 after allocating temp_ham_ovlp)
          |   Average:      207.033 MB
          | Largest tracked array allocation:
          |   Minimum:       56.289 MB (overlap_matrix on task   0)
          |   Maximum:       56.289 MB (overlap_matrix on task   0)
          |   Average:       56.289 MB
          Note:  These values currently only include a subset of arrays which are explicitly tracked.
          The "true" memory usage will be greater.

          Have a nice day.
------------------------------------------------------------
