------------------------------------------------------------
          Invoking FHI-aims ...

          When using FHI-aims, please cite the following reference:

            Volker Blum, Ralf Gehrke, Felix Hanke, Paula Havu,
            Ville Havu, Xinguo Ren, Karsten Reuter, and Matthias Scheffler,
            'Ab Initio Molecular Simulations with Numeric Atom-Centered Orbitals',
            Computer Physics Communications 180, 2175-2196 (2009)

          In addition, many other developments in FHI-aims are likely important for
          your particular application. If so, please cite them. A partial list of references
          is written at the end of this file. Thank you for giving credit to the authors
          of these developments.

          For general information about FHI-aims please find us at

            https://fhi-aims.org

          Online tutorials can be found at

            https://fhi-aims-club.gitlab.io/tutorials/tutorials-overview/

          For any questions about FHI-aims, please visit our slack channel at

            https://fhi-aims.slack.com

          and our main development and support site at

            https://aims-git.rz-berlin.mpg.de .

          The latter site, in particular, has a wiki to collect information, as well
          as an issue tracker to log discussions, suggest improvements, and report issues
          or bugs. https://aims-git.rz-berlin.mpg.de is also the main development site
          of the project and all new and updated code versions can be obtained there.
          Please send an email to aims-coordinators@fhi-berlin.mpg.de and we will add
          you to these sites. They are for you and everyone is welcome there.

------------------------------------------------------------



  Date     :  20240717, Time     :  041014.241
  Time zero on CPU 1             :   0.174686000000000E+00  s.
  Internal wall clock time zero  :           490421414.241  s.

  FHI-aims created a unique identifier for this run for later identification
  aims_uuid : EF5DBE53-E9FE-4E4F-A98B-D5B52D0E356F

  Build configuration of the current instance of FHI-aims
  -------------------------------------------------------
  FHI-aims version      : 230612
  Commit number         : 0c86b0d53
  CMake host system     : Linux-3.10.0-1160.80.1.el7.x86_64
  CMake version         : 3.24.2
  Fortran compiler      : /apps/compilers/intel/2018.2/compilers_and_libraries_2018/linux/mpi/intel64/bin/mpif90 (Intel) version 18.0.2.20180210
  Fortran compiler flags: -O3 -ip -fp-model precise
  C compiler            : /apps/compilers/intel/2018.2/compilers_and_libraries_2018/linux/bin/intel64/icc (Intel) version 18.0.2.20180210
  C compiler flags      : -O3 -ip -fp-model precise -std=gnu99
  HIP compiler          :
  HIP compiler flags    :
  HIP GPU arch          :
  ELPA2 kernel          : AVX2
  Using MPI
  Using ScaLAPACK
  Using LibXC
  Using i-PI
  Using RLSY
  Linking against: /apps/compilers/intel/2018.2/compilers_and_libraries_2018/linux/mkl/lib/intel64/libmkl_intel_lp64.so
                   /apps/compilers/intel/2018.2/compilers_and_libraries_2018/linux/mkl/lib/intel64/libmkl_intel_thread.so
                   /apps/compilers/intel/2018.2/compilers_and_libraries_2018/linux/mkl/lib/intel64/libmkl_core.so
                   /apps/compilers/intel/2018.2/compilers_and_libraries_2018/linux/mkl/lib/intel64/libmkl_blacs_intelmpi_lp64.so
                   /apps/compilers/intel/2018.2/compilers_and_libraries_2018/linux/mkl/lib/intel64/libmkl_scalapack_lp64.so
                   /usr/lib64/libpthread.so

  Using      200 parallel tasks.
  Task        0 on host ccs0051 reporting.
  Task        1 on host ccs0051 reporting.
  Task        2 on host ccs0051 reporting.
  Task        3 on host ccs0051 reporting.
  Task        4 on host ccs0051 reporting.
  Task        5 on host ccs0051 reporting.
  Task        6 on host ccs0051 reporting.
  Task        7 on host ccs0051 reporting.
  Task        8 on host ccs0051 reporting.
  Task        9 on host ccs0051 reporting.
  Task       10 on host ccs0051 reporting.
  Task       11 on host ccs0051 reporting.
  Task       12 on host ccs0051 reporting.
  Task       13 on host ccs0051 reporting.
  Task       14 on host ccs0051 reporting.
  Task       15 on host ccs0051 reporting.
  Task       16 on host ccs0051 reporting.
  Task       17 on host ccs0051 reporting.
  Task       18 on host ccs0051 reporting.
  Task       19 on host ccs0051 reporting.
  Task       20 on host ccs0051 reporting.
  Task       21 on host ccs0051 reporting.
  Task       22 on host ccs0051 reporting.
  Task       23 on host ccs0051 reporting.
  Task       24 on host ccs0051 reporting.
  Task       25 on host ccs0051 reporting.
  Task       26 on host ccs0051 reporting.
  Task       27 on host ccs0051 reporting.
  Task       28 on host ccs0051 reporting.
  Task       29 on host ccs0051 reporting.
  Task       30 on host ccs0051 reporting.
  Task       31 on host ccs0051 reporting.
  Task       32 on host ccs0051 reporting.
  Task       33 on host ccs0051 reporting.
  Task       34 on host ccs0051 reporting.
  Task       35 on host ccs0051 reporting.
  Task       36 on host ccs0051 reporting.
  Task       37 on host ccs0051 reporting.
  Task       38 on host ccs0051 reporting.
  Task       39 on host ccs0051 reporting.
  Task       40 on host ccs0052 reporting.
  Task       41 on host ccs0052 reporting.
  Task       42 on host ccs0052 reporting.
  Task       43 on host ccs0052 reporting.
  Task       44 on host ccs0052 reporting.
  Task       45 on host ccs0052 reporting.
  Task       46 on host ccs0052 reporting.
  Task       47 on host ccs0052 reporting.
  Task       48 on host ccs0052 reporting.
  Task       49 on host ccs0052 reporting.
  Task       50 on host ccs0052 reporting.
  Task       51 on host ccs0052 reporting.
  Task       52 on host ccs0052 reporting.
  Task       53 on host ccs0052 reporting.
  Task       54 on host ccs0052 reporting.
  Task       55 on host ccs0052 reporting.
  Task       56 on host ccs0052 reporting.
  Task       57 on host ccs0052 reporting.
  Task       58 on host ccs0052 reporting.
  Task       59 on host ccs0052 reporting.
  Task       60 on host ccs0052 reporting.
  Task       61 on host ccs0052 reporting.
  Task       62 on host ccs0052 reporting.
  Task       63 on host ccs0052 reporting.
  Task       64 on host ccs0052 reporting.
  Task       65 on host ccs0052 reporting.
  Task       66 on host ccs0052 reporting.
  Task       67 on host ccs0052 reporting.
  Task       68 on host ccs0052 reporting.
  Task       69 on host ccs0052 reporting.
  Task       70 on host ccs0052 reporting.
  Task       71 on host ccs0052 reporting.
  Task       72 on host ccs0052 reporting.
  Task       73 on host ccs0052 reporting.
  Task       74 on host ccs0052 reporting.
  Task       75 on host ccs0052 reporting.
  Task       76 on host ccs0052 reporting.
  Task       77 on host ccs0052 reporting.
  Task       78 on host ccs0052 reporting.
  Task       79 on host ccs0052 reporting.
  Task       80 on host ccs0055 reporting.
  Task       81 on host ccs0055 reporting.
  Task       82 on host ccs0055 reporting.
  Task       83 on host ccs0055 reporting.
  Task       84 on host ccs0055 reporting.
  Task       85 on host ccs0055 reporting.
  Task       86 on host ccs0055 reporting.
  Task       87 on host ccs0055 reporting.
  Task       88 on host ccs0055 reporting.
  Task       89 on host ccs0055 reporting.
  Task       90 on host ccs0055 reporting.
  Task       91 on host ccs0055 reporting.
  Task       92 on host ccs0055 reporting.
  Task       93 on host ccs0055 reporting.
  Task       94 on host ccs0055 reporting.
  Task       95 on host ccs0055 reporting.
  Task       96 on host ccs0055 reporting.
  Task       97 on host ccs0055 reporting.
  Task       98 on host ccs0055 reporting.
  Task       99 on host ccs0055 reporting.
  Task      100 on host ccs0055 reporting.
  Task      101 on host ccs0055 reporting.
  Task      102 on host ccs0055 reporting.
  Task      103 on host ccs0055 reporting.
  Task      104 on host ccs0055 reporting.
  Task      105 on host ccs0055 reporting.
  Task      106 on host ccs0055 reporting.
  Task      107 on host ccs0055 reporting.
  Task      108 on host ccs0055 reporting.
  Task      109 on host ccs0055 reporting.
  Task      110 on host ccs0055 reporting.
  Task      111 on host ccs0055 reporting.
  Task      112 on host ccs0055 reporting.
  Task      113 on host ccs0055 reporting.
  Task      114 on host ccs0055 reporting.
  Task      115 on host ccs0055 reporting.
  Task      116 on host ccs0055 reporting.
  Task      117 on host ccs0055 reporting.
  Task      118 on host ccs0055 reporting.
  Task      119 on host ccs0055 reporting.
  Task      120 on host ccs0064 reporting.
  Task      121 on host ccs0064 reporting.
  Task      122 on host ccs0064 reporting.
  Task      123 on host ccs0064 reporting.
  Task      124 on host ccs0064 reporting.
  Task      125 on host ccs0064 reporting.
  Task      126 on host ccs0064 reporting.
  Task      127 on host ccs0064 reporting.
  Task      128 on host ccs0064 reporting.
  Task      129 on host ccs0064 reporting.
  Task      130 on host ccs0064 reporting.
  Task      131 on host ccs0064 reporting.
  Task      132 on host ccs0064 reporting.
  Task      133 on host ccs0064 reporting.
  Task      134 on host ccs0064 reporting.
  Task      135 on host ccs0064 reporting.
  Task      136 on host ccs0064 reporting.
  Task      137 on host ccs0064 reporting.
  Task      138 on host ccs0064 reporting.
  Task      139 on host ccs0064 reporting.
  Task      140 on host ccs0064 reporting.
  Task      141 on host ccs0064 reporting.
  Task      142 on host ccs0064 reporting.
  Task      143 on host ccs0064 reporting.
  Task      144 on host ccs0064 reporting.
  Task      145 on host ccs0064 reporting.
  Task      146 on host ccs0064 reporting.
  Task      147 on host ccs0064 reporting.
  Task      148 on host ccs0064 reporting.
  Task      149 on host ccs0064 reporting.
  Task      150 on host ccs0064 reporting.
  Task      151 on host ccs0064 reporting.
  Task      152 on host ccs0064 reporting.
  Task      153 on host ccs0064 reporting.
  Task      154 on host ccs0064 reporting.
  Task      155 on host ccs0064 reporting.
  Task      156 on host ccs0064 reporting.
  Task      157 on host ccs0064 reporting.
  Task      158 on host ccs0064 reporting.
  Task      159 on host ccs0064 reporting.
  Task      160 on host ccs0067 reporting.
  Task      161 on host ccs0067 reporting.
  Task      162 on host ccs0067 reporting.
  Task      163 on host ccs0067 reporting.
  Task      164 on host ccs0067 reporting.
  Task      165 on host ccs0067 reporting.
  Task      166 on host ccs0067 reporting.
  Task      167 on host ccs0067 reporting.
  Task      168 on host ccs0067 reporting.
  Task      169 on host ccs0067 reporting.
  Task      170 on host ccs0067 reporting.
  Task      171 on host ccs0067 reporting.
  Task      172 on host ccs0067 reporting.
  Task      173 on host ccs0067 reporting.
  Task      174 on host ccs0067 reporting.
  Task      175 on host ccs0067 reporting.
  Task      176 on host ccs0067 reporting.
  Task      177 on host ccs0067 reporting.
  Task      178 on host ccs0067 reporting.
  Task      179 on host ccs0067 reporting.
  Task      180 on host ccs0067 reporting.
  Task      181 on host ccs0067 reporting.
  Task      182 on host ccs0067 reporting.
  Task      183 on host ccs0067 reporting.
  Task      184 on host ccs0067 reporting.
  Task      185 on host ccs0067 reporting.
  Task      186 on host ccs0067 reporting.
  Task      187 on host ccs0067 reporting.
  Task      188 on host ccs0067 reporting.
  Task      189 on host ccs0067 reporting.
  Task      190 on host ccs0067 reporting.
  Task      191 on host ccs0067 reporting.
  Task      192 on host ccs0067 reporting.
  Task      193 on host ccs0067 reporting.
  Task      194 on host ccs0067 reporting.
  Task      195 on host ccs0067 reporting.
  Task      196 on host ccs0067 reporting.
  Task      197 on host ccs0067 reporting.
  Task      198 on host ccs0067 reporting.
  Task      199 on host ccs0067 reporting.

  Obtaining array dimensions for all initial allocations:
  
  -----------------------------------------------------------------------
  Parsing control.in (first pass over file, find array dimensions only).
  The contents of control.in will be repeated verbatim below
  unless switched off by setting 'verbatim_writeout .false.' .
  in the first line of control.in .
  -----------------------------------------------------------------------
  
  #===============================================================================
  # FHI-aims file: ./control.in
  # Created using the Atomic Simulation Environment (ASE)
  # Wed Jul 17 04:10:13 2024
  #===============================================================================
  spin                               none
  relativistic                       atomic_zora scalar
  compute_forces                     .true.
  override_warning_libxc             true
  xc                                 libxc MGGA_X_MBEEF+GGA_C_PBE_SOL
  k_grid                             4 4 2
  occupation_type                    gaussian 0.1
  plus_u_petukhov_mixing             1
  plus_u_use_hydros                  True
  plus_u_matrix_control              True
  plus_u_matrix_release              0.001
  output                             dos -18 0 200 0.1
  output                             atom_proj_dos -18 0 200 0.1
  sc_accuracy_etot                   1e-06
  sc_accuracy_eev                    0.001
  sc_accuracy_rho                    1e-06
  sc_accuracy_forces                 0.0001
  #===============================================================================
  
  ################################################################################
  #
  #  FHI-aims code project
  #  VB, Fritz-Haber Institut, 2009
  #
  #  Suggested "light" defaults for Ti atom (to be pasted into control.in file)
  #  Be sure to double-check any results obtained with these settings for post-processing,
  #  e.g., with the "tight" defaults and larger basis sets.
  #
  ################################################################################
    species        Ti
  #     global species definitions
      nucleus             22
      mass                47.867
  #
      l_hartree           4
  #
      cut_pot             3.5          1.5  1.0
      basis_dep_cutoff    1e-4
  #
      radial_base         48 5.0
      radial_multiplier   1
      angular_grids       specified
        division   0.5171   50
        division   0.9824  110
        division   1.2917  194
        division   1.4940  302
  #      division   1.6934  434
  #      division   1.8425  590
  #      division   2.1901  770
  #      division   2.2896  974
  #      division   2.8244 1202
  #      outer_grid  974
        outer_grid  302
  ################################################################################
  #
  #  Definition of "minimal" basis
  #
  ################################################################################
  #     valence basis states
      valence      4  s   2.
      valence      3  p   6.
      valence      3  d   2.
  #     ion occupancy
      ion_occ      4  s   1.
      ion_occ      3  p   6.
      ion_occ      3  d   1.
  ################################################################################
  #
  #  Suggested additional basis functions. For production calculations,
  #  uncomment them one after another (the most important basis functions are
  #  listed first).
  #
  #  Constructed for dimers: 1.6 A, 1.85 A, 2.5 A, 3.25 A, 4.25 A
  #
  ################################################################################
  #  "First tier" - improvements: -396.25 meV to -19.41 meV
       hydro 4 f 8
       hydro 3 d 2.7
       ionic 4 p auto
  #     hydro 5 g 11.6
       ionic 4 s auto
  #  "Second tier" - improvements: -16.30 meV to -2.03 meV
  #     hydro 3 d 4.4
  #     hydro 6 h 16
  #     hydro 4 f 9.4
  #     hydro 4 p 4.5
  #     hydro 1 s 0.5
  #  "Third tier" - improvements: -6.28 meV to -0.37 meV
  #     hydro 4 d 6.4
  #     hydro 4 f 10
  #     hydro 5 g 12
  #     hydro 2 p 1.7
  #     hydro 6 h 16.4
  #     hydro 4 s 3.8
  #  Further basis functions: -0.45 meV and smaller improvements
  #     hydro 3 d 8.8
  #     hydro 5 p 18
  #     hydro 4 f 22.4
  #     hydro 5 f 7.2  # -0.16 meV
  #     hydro 3 d 2.1  # -0.11 meV
  #     hydro 5 g 7.4  # -0.09 meV
  plus_u 3 d 2.575
  hubbard_coefficient 0.752 -0.486 0 0
  ################################################################################
  #
  #  FHI-aims code project
  #  VB, Fritz-Haber Institut, 2009
  #
  #  Suggested "light" defaults for O atom (to be pasted into control.in file)
  #  Be sure to double-check any results obtained with these settings for post-processing,
  #  e.g., with the "tight" defaults and larger basis sets.
  #
  ################################################################################
    species        O
  #     global species definitions
      nucleus             8
      mass                15.9994
  #
      l_hartree           4
  #
      cut_pot             3.5  1.5  1.0
      basis_dep_cutoff    1e-4
  #
      radial_base         36 5.0
      radial_multiplier   1
       angular_grids specified
        division   0.2659   50
        division   0.4451  110
        division   0.6052  194
        division   0.7543  302
  #      division   0.8014  434
  #      division   0.8507  590
  #      division   0.8762  770
  #      division   0.9023  974
  #      division   1.2339 1202
  #      outer_grid 974
        outer_grid 302
  ################################################################################
  #
  #  Definition of "minimal" basis
  #
  ################################################################################
  #     valence basis states
      valence      2  s   2.
      valence      2  p   4.
  #     ion occupancy
      ion_occ      2  s   1.
      ion_occ      2  p   3.
  ################################################################################
  #
  #  Suggested additional basis functions. For production calculations,
  #  uncomment them one after another (the most important basis functions are
  #  listed first).
  #
  #  Constructed for dimers: 1.0 A, 1.208 A, 1.5 A, 2.0 A, 3.0 A
  #
  ################################################################################
  #  "First tier" - improvements: -699.05 meV to -159.38 meV
       hydro 2 p 1.8
       hydro 3 d 7.6
       hydro 3 s 6.4
  #  "Second tier" - improvements: -49.91 meV to -5.39 meV
  #     hydro 4 f 11.6
  #     hydro 3 p 6.2
  #     hydro 3 d 5.6
  #     hydro 5 g 17.6
  #     hydro 1 s 0.75
  #  "Third tier" - improvements: -2.83 meV to -0.50 meV
  #     ionic 2 p auto
  #     hydro 4 f 10.8
  #     hydro 4 d 4.7
  #     hydro 2 s 6.8
  #  "Fourth tier" - improvements: -0.40 meV to -0.12 meV
  #     hydro 3 p 5
  #     hydro 3 s 3.3
  #     hydro 5 g 15.6
  #     hydro 4 f 17.6
  #     hydro 4 d 14
  # Further basis functions - -0.08 meV and below
  #     hydro 3 s 2.1
  #     hydro 4 d 11.6
  #     hydro 3 p 16
  #     hydro 2 s 17.2################################################################################
  #
  #  FHI-aims code project
  #  VB, Fritz-Haber Institut, 2009
  #
  #  Suggested "light" defaults for Pt atom (to be pasted into control.in file)
  #  Be sure to double-check any results obtained with these settings for post-processing,
  #  e.g., with the "tight" defaults and larger basis sets.
  #
  ################################################################################
    species        Pt
  #     global species definitions
      nucleus             78
      mass                195.084
  #
      l_hartree           4
  #
      cut_pot             3.5  1.5  1.0
      basis_dep_cutoff    1e-4
  #
      radial_base         72 5.0
      radial_multiplier   1
      angular_grids specified
        division   0.4222   50
        division   0.9557  110
        division   1.2477  194
        division   1.5393  302
  #      division   1.9382  434
  #      division   2.0887  590
  #      division   2.1534  770
  #      division   2.2208  974
  #      division   2.6985 1202
  #      outer_grid    974
        outer_grid    302
  ################################################################################
  #
  #  Definition of "minimal" basis
  #
  ################################################################################
  #     valence basis states
      valence      6  s   1.
      valence      5  p   6.
      valence      5  d   9.
      valence      4  f  14.
  #     ion occupancy
      ion_occ     6  s   0.
      ion_occ     5  p   6.
      ion_occ     5  d   8.
      ion_occ     4  f   14.
  ################################################################################
  #
  #  Suggested additional basis functions. For production calculations,
  #  uncomment them one after another (the most important basis functions are
  #  listed first).
  #
  #  Constructed for dimers: 2.00, 2.275, 2.75, 3.75 AA
  #
  ################################################################################
  #  "First tier" - max. impr. -193.66  meV, min. impr. -18.25 meV
       hydro 4 f 7.4
       ionic 6 p auto
  #     hydro 5 g 9.8
       ionic 6 s auto
       hydro 3 d 2.6
  #  "Second tier" - max. impr. -10.25  meV, min. impr. -0.56 meV
  #     hydro 6 h 14
  #     hydro 5 f 14
  #     hydro 4 d 4
  #     hydro 3 p 3.3
  #     hydro 5 g 16.4
  #     hydro 1 s 0.5
  #  "Third tier" - max. impr. -0.72  meV, min. impr. -0.18 meV
  #     hydro 5 f 9
  #     ionic 5 d auto
  #     hydro 6 h 16.4
  #     hydro 5 g 12.4
  #     hydro 5 g 34
  #     hydro 5 s 13.6
  #     hydro 5 p 10.4
  #  Further functions:
  plus_u 5 d 0
  hubbard_coefficient 1 0 0 0
  
  -----------------------------------------------------------------------
  Completed first pass over input file control.in .
  -----------------------------------------------------------------------
  
  
  -----------------------------------------------------------------------
  Parsing geometry.in (first pass over file, find array dimensions only).
  The contents of geometry.in will be repeated verbatim below
  unless switched off by setting 'verbatim_writeout .false.' .
  in the first line of geometry.in .
  -----------------------------------------------------------------------
  
  #=======================================================
  # FHI-aims file: ./geometry.in
  # Created using the Atomic Simulation Environment (ASE)
  # Wed Jul 17 04:10:13 2024
  #=======================================================
  lattice_vector 11.3550000000000004 0.0000000000000000 0.0000000000000000
  lattice_vector 0.0000000000000000 11.3550000000000004 0.0000000000000000
  lattice_vector 0.0000000000000000 0.0000000000000000 28.5398999999999958
  atom_frac 0.1667018773386444 0.2500002794599297 0.2916704029948571 Ti
  atom_frac 0.0000605455420136 0.2499919474236202 0.2083284434718136 Ti
  atom_frac 0.1666626376103835 0.0833333284577468 0.0416691063091644 Ti
  atom_frac -0.0000056352520541 0.0833333301125948 0.1250008411549896 Ti
  atom_frac 0.1666560877317041 0.2499953597606721 0.0273716094480592 O
  atom_frac 0.0000737621754886 0.2499949023085115 0.2773580867451457 O
  atom_frac 0.1667677873201405 0.0833333069127589 0.3059477261862277 O
  atom_frac -0.0000042660699954 0.0833333057354704 0.0559641677032916 O
  atom_frac 0.0000191331262475 0.0833333318847186 0.1940382504563985 O
  atom_frac 0.1666642579284965 0.0833333371489254 0.1107024203101340 O
  atom_frac 0.0000091149405734 0.2499918433645792 0.1392912715177107 O
  atom_frac 0.1666896620447602 0.2500059299071829 0.2226157369180069 O
  atom_frac 0.1651982252014501 0.2499437507208320 0.6251617607985517 Ti
  atom_frac -0.0004678905337581 0.2495320663859676 0.5416669079957740 Ti
  atom_frac 0.1670676211510918 0.0833332799912113 0.3749833386754701 Ti
  atom_frac 0.0000711843529883 0.0833333643273143 0.4580466895124422 Ti
  atom_frac 0.1671350161676151 0.2500556228575413 0.3606843384388073 O
  atom_frac -0.0005821141425835 0.2501423128200154 0.6109363482406097 O
  atom_frac 0.1658250735314983 0.0833333576422411 0.6396567307824668 O
  atom_frac 0.0002119351938866 0.0833332936437880 0.3891031020273208 O
  atom_frac -0.0011895709266348 0.0833333628418940 0.5271088045431040 O
  atom_frac 0.1668745283008299 0.0833333721116105 0.4440341187983551 O
  atom_frac 0.0001418758022060 0.2494178255433847 0.4723967720021572 O
  atom_frac 0.1654843853066027 0.2478818081660259 0.5564857307485218 O
  atom_frac 0.1666429097849600 0.2499934019232676 0.9583354150178274 Ti
  atom_frac -0.0000080479619746 0.2500604598341663 0.8750052608493935 Ti
  atom_frac 0.1666992469096237 0.0833333450039984 0.7085587407870961 Ti
  atom_frac -0.0000718932210025 0.0833332699026591 0.7917640792542564 Ti
  atom_frac 0.1666003733141077 0.2500126485412141 0.6943767103616952 O
  atom_frac -0.0000081475059036 0.2500090617986905 0.9440417858338171 O
  atom_frac 0.1666578359558148 0.0833333265324522 0.9726269802794341 O
  atom_frac -0.0000509967344790 0.0833333432933846 0.7227618510755981 O
  atom_frac -0.0000405470314871 0.0833332894281006 0.8607616890201706 O
  atom_frac 0.1666595625520995 0.0833332584050946 0.7775761965184074 O
  atom_frac -0.0000050593438032 0.2500737022742247 0.8059749708673259 O
  atom_frac 0.1666607741708512 0.2500151188636174 0.8893010141827596 O
  atom_frac 0.1667177898441016 0.5833332959548780 0.2916371671633813 Ti
  atom_frac 0.0000552028021051 0.5833333383192313 0.2083023323282083 Ti
  atom_frac 0.1666645341772133 0.4166645279105204 0.0416668525897282 Ti
  atom_frac -0.0000065672385169 0.4166429010102435 0.1249976353437702 Ti
  atom_frac 0.1666557236066053 0.5833333346049048 0.0273757223619690 O
  atom_frac 0.0000652153302720 0.5833333093472847 0.2773350288248696 O
  atom_frac 0.1667773180214160 0.4167068926846276 0.3059685680930694 O
  atom_frac -0.0000046154860304 0.4166560809366626 0.0559620794772837 O
  atom_frac 0.0000152095535365 0.4166607594893362 0.1940326720465931 O
  atom_frac 0.1666651133199242 0.4166589278133452 0.1107027723242761 O
  atom_frac 0.0000139511821484 0.5833333356855525 0.1392823300130398 O
  atom_frac 0.1667040942533418 0.5833333284242748 0.2226147302911843 O
  atom_frac 0.1636883340749100 0.5833333487713742 0.6252078018415711 Ti
  atom_frac -0.0009342610425141 0.5833333609383351 0.5400638448636375 Ti
  atom_frac 0.1661661320204320 0.4167408224967943 0.3750069212513910 Ti
  atom_frac -0.0000563471665975 0.4151980246083068 0.4581713207937770 Ti
  atom_frac 0.1668153031521595 0.5833333079639565 0.3607378341244604 O
  atom_frac 0.0000956443338010 0.5833333525892034 0.6103239229438188 O
  atom_frac 0.1653124420589382 0.4161265770455688 0.6393166184940062 O
  atom_frac 0.0000125482879309 0.4166002700098057 0.3889569634159166 O
  atom_frac -0.0021181851710800 0.4154842593142963 0.5268479267856793 O
  atom_frac 0.1661264733410673 0.4153119766373555 0.4440164185633967 O
  atom_frac -0.0001871538645834 0.5833333661894176 0.4721239304763848 O
  atom_frac 0.1620389235202132 0.5833333809749764 0.5547213935325334 O
  atom_frac 0.1666381195030015 0.5833333377778475 0.9583387333645491 Ti
  atom_frac -0.0000101629251805 0.5833332730005689 0.8750059074407236 Ti
  atom_frac 0.1667408697000853 0.4161663768034666 0.7083267259751709 Ti
  atom_frac 0.0000003277720817 0.4167017630649108 0.7916626346218520 Ti
  atom_frac 0.1671845664889337 0.5833333654146716 0.6935988067509444 O
  atom_frac -0.0000075638236141 0.5833333393427002 0.9440480283964087 O
  atom_frac 0.1666589267145730 0.4166650909484689 0.9726303107616348 O
  atom_frac 0.0000556545984941 0.4171351447667976 0.7226493293696810 O
  atom_frac 0.0000059494045926 0.4166895976926432 0.8607179389136792 O
  atom_frac 0.1667069458433715 0.4167772718103215 0.7773644596370231 O
  atom_frac 0.0000039173631025 0.5833332771149643 0.8059849074020352 O
  atom_frac 0.1666626801454872 0.5833332879732269 0.8893067315650441 O
  atom_frac 0.1667018788957151 0.9166663108955008 0.2916704030628063 Ti
  atom_frac 0.0000605454204168 0.9166747189947759 0.2083284459203539 Ti
  atom_frac 0.1666645382975088 0.7500021471868492 0.0416668511388552 Ti
  atom_frac -0.0000065715988302 0.7500237737805485 0.1249976333062025 Ti
  atom_frac 0.1666560939343529 0.9166713016974649 0.0273715976259627 O
  atom_frac 0.0000737627892800 0.9166717238514369 0.2773580883361257 O
  atom_frac 0.1667773091386549 0.7499597202329934 0.3059685682596887 O
  atom_frac -0.0000046179485071 0.7500106112362784 0.0559620784263848 O
  atom_frac 0.0000152102379664 0.7500059080740353 0.1940326728758115 O
  atom_frac 0.1666651137213660 0.7500077353702215 0.1107027687301802 O
  atom_frac 0.0000091246771093 0.9166748210346412 0.1392912738558069 O
  atom_frac 0.1666896624752636 0.9166607286897402 0.2226157374425483 O
  atom_frac 0.1651982334866771 0.9167229366793915 0.6251617514446437 Ti
  atom_frac -0.0004678943674409 0.9171346528545079 0.5416669088958962 Ti
  atom_frac 0.1661661402314905 0.7499257330408710 0.3750069232410465 Ti
  atom_frac -0.0000563457116609 0.7514687145195267 0.4581713197885292 Ti
  atom_frac 0.1671350321686028 0.9166109931415558 0.3606843381027794 O
  atom_frac -0.0005821104453355 0.9165244453990704 0.6109363478659906 O
  atom_frac 0.1653124219842476 0.7505401529214266 0.6393166129406006 O
  atom_frac 0.0000125508411130 0.7500663490882967 0.3889569641462441 O
  atom_frac -0.0021181896382081 0.7511824766529439 0.5268479278771243 O
  atom_frac 0.1661264753215526 0.7513547560228993 0.4440164188479231 O
  atom_frac 0.0001418722474256 0.9172489039050590 0.4723967697813492 O
  atom_frac 0.1654843895096619 0.9187849357320872 0.5564857267024582 O
  atom_frac 0.1666429002078460 0.9166732628314277 0.9583354133658782 Ti
  atom_frac -0.0000080563259986 0.9166060657046253 0.8750052409277008 Ti
  atom_frac 0.1667408724451263 0.7505003345318022 0.7083267241691172 Ti
  atom_frac 0.0000003224724906 0.7499647337627663 0.7916626330513090 Ti
  atom_frac 0.1666004296651127 0.9166540700091876 0.6943767070646287 O
  atom_frac -0.0000081385304083 0.9166575685459057 0.9440417855357979 O
  atom_frac 0.1666589291022681 0.7500015757580050 0.9726303059626857 O
  atom_frac 0.0000556552867765 0.7495315928455946 0.7226493168857382 O
  atom_frac 0.0000059600319371 0.7499769628533116 0.8607179308699821 O
  atom_frac 0.1667069468771185 0.7498892971105700 0.7773644536601759 O
  atom_frac -0.0000050989301198 0.9165928746901514 0.8059749723581697 O
  atom_frac 0.1666607667564345 0.9166514691551830 0.8893010052895477 O
  atom_frac 0.4999648004470008 0.2500002784224417 0.2916704033574503 Ti
  atom_frac 0.3333333419848710 0.2499898417256088 0.2083278048146728 Ti
  atom_frac 0.5000040440837358 0.0833333352716692 0.0416690998942019 Ti
  atom_frac 0.3333333458919865 0.0833333330080197 0.1249943128275218 Ti
  atom_frac 0.5000105852342662 0.2499953640646683 0.0273715997436873 O
  atom_frac 0.3333333408442569 0.2500038387866190 0.2773481734959258 O
  atom_frac 0.4998988950983546 0.0833333067701096 0.3059477259667046 O
  atom_frac 0.3333333474129793 0.0833333267300279 0.0559598140778482 O
  atom_frac 0.3333333403404053 0.0833333293431699 0.1940328992071169 O
  atom_frac 0.5000024195297244 0.0833333259310852 0.1107024205359248 O
  atom_frac 0.3333333456361071 0.2499924379007803 0.1392850519058669 O
  atom_frac 0.4999770171132649 0.2500059302513288 0.2226157380534363 O
  atom_frac 0.5014684093264818 0.2499437629853408 0.6251617546530088 Ti
  atom_frac 0.3333333102790517 0.2490657342838118 0.5432696232400086 Ti
  atom_frac 0.4995990881964756 0.0833332799238302 0.3749833391118415 Ti
  atom_frac 0.3333333541234040 0.0833334403620145 0.4587288429071402 Ti
  atom_frac 0.4995316863024665 0.2500556234010388 0.3606843392890492 O
  atom_frac 0.3333333198013472 0.2498129431354509 0.6112090085282799 O
  atom_frac 0.5008415571329028 0.0833333573922614 0.6396567286689020 O
  atom_frac 0.3333333482043421 0.0833333455029302 0.3894086202985435 O
  atom_frac 0.3333333194289776 0.0833333934553114 0.5275342872743931 O
  atom_frac 0.4997921706742798 0.0833333708628363 0.4440341182806716 O
  atom_frac 0.3333333565970116 0.2500953744644805 0.4730088366410776 O
  atom_frac 0.5011822481687366 0.2478818333124982 0.5564857291570537 O
  atom_frac 0.5000237804518627 0.2499934087236085 0.9583354115455641 Ti
  atom_frac 0.3333333378360904 0.2500552054776847 0.8750313643450172 Ti
  atom_frac 0.4999674284321042 0.0833333533746399 0.7085587321342056 Ti
  atom_frac 0.3333333439366579 0.0833333349290667 0.7918005463778214 Ti
  atom_frac 0.5000662671252912 0.2500126575092717 0.6943767019918077 O
  atom_frac 0.3333333389482558 0.2500139653475814 0.9440507341166499 O
  atom_frac 0.5000088584755839 0.0833333361922432 0.9726269820749309 O
  atom_frac 0.3333333397399556 0.0833334140366438 0.7227658419317928 O
  atom_frac 0.3333333300022075 0.0833333097912403 0.8607864783702422 O
  atom_frac 0.5000071254802637 0.0833332680670426 0.7775762017969102 O
  atom_frac 0.3333333319245236 0.2500652062338622 0.8059980199631827 O
  atom_frac 0.5000059128211496 0.2500151091895454 0.8893009998309757 O
  atom_frac 0.4999488863305694 0.5833332963051404 0.2916371685899873 Ti
  atom_frac 0.3333333421635247 0.5833333336357883 0.2082953950323957 Ti
  atom_frac 0.5000021380169389 0.4166645278798136 0.0416668449655637 Ti
  atom_frac 0.3333333385126016 0.4166381254527264 0.1249943289341729 Ti
  atom_frac 0.5000109496030389 0.5833333300328079 0.0273757123179591 O
  atom_frac 0.3333333401957789 0.5833333055058390 0.2773464404917934 O
  atom_frac 0.4998893628907212 0.4167068922142201 0.3059685688871182 O
  atom_frac 0.3333333426976317 0.4166557808565529 0.0559579687594526 O
  atom_frac 0.3333333408340680 0.4166626696128503 0.1940269749099098 O
  atom_frac 0.5000015636845417 0.4166589284025268 0.1107027665774670 O
  atom_frac 0.3333333453988555 0.5833333306002417 0.1392826583396228 O
  atom_frac 0.4999625842275238 0.5833333276169428 0.2226147315385976 O
  atom_frac 0.5029782229660071 0.5833333417064557 0.6252077707080612 Ti
  atom_frac 0.3333331895753405 0.5833333872427947 0.5416663608159862 Pt
  atom_frac 0.5005005622875891 0.4167408217589496 0.3750069216467414 Ti
  atom_frac 0.3333333495083463 0.4136877614963935 0.4581248969888257 Ti
  atom_frac 0.4998513888420852 0.5833333074525987 0.3607378345388579 O
  atom_frac 0.3333332458310018 0.5833333711359093 0.6113190696285580 O
  atom_frac 0.5013541694664195 0.4161265877605508 0.6393166049235463 O
  atom_frac 0.3333333439227927 0.4171848657697149 0.3897346087691010 O
  atom_frac 0.3333332402730886 0.4120387499729766 0.5286116223036977 O
  atom_frac 0.5005402078170671 0.4153119934803597 0.4440164206966807 O
  atom_frac 0.3333332842976046 0.5833333775911466 0.4720130567406996 O
  atom_frac 0.5046275125996921 0.5833333787566146 0.5547213694444424 O
  atom_frac 0.5000285706624779 0.5833333309063271 0.9583387296929212 Ti
  atom_frac 0.3333333374992371 0.5833333210658137 0.8750383165295207 Ti
  atom_frac 0.4999257980639221 0.4161663944555775 0.7083267141795605 Ti
  atom_frac 0.3333333362586038 0.4167177929086646 0.7916958611811381 Ti
  atom_frac 0.4994820459075394 0.5833333618662514 0.6935987915218385 O
  atom_frac 0.3333333388690998 0.5833333445152860 0.9440504346635161 O
  atom_frac 0.5000077608360262 0.4166650908316026 0.9726303022619425 O
  atom_frac 0.3333333310868211 0.4168159346258407 0.7225958092744186 O
  atom_frac 0.3333333408090272 0.4167040461496808 0.8607189414817927 O
  atom_frac 0.4999597296249010 0.4167772762683498 0.7773644539156471 O
  atom_frac 0.3333333310315881 0.5833333019708330 0.8059866673791450 O
  atom_frac 0.5000040063994223 0.5833332987118358 0.8893067169701631 O
  atom_frac 0.4999647972948815 0.9166663114298763 0.2916704041174785 Ti
  atom_frac 0.3333333407952401 0.9166768206030309 0.2083278041068915 Ti
  atom_frac 0.5000021421967124 0.7500021406794326 0.0416668448033167 Ti
  atom_frac 0.3333333460316171 0.7500285405585455 0.1249943274930446 Ti
  atom_frac 0.5000105901125577 0.9166713019401328 0.0273716074480086 O
  atom_frac 0.3333333408218981 0.9166627516851908 0.2773481729444195 O
  atom_frac 0.4998893712731173 0.7499597205863403 0.3059685693910933 O
  atom_frac 0.3333333466848309 0.7500108930329962 0.0559579678322765 O
  atom_frac 0.3333333418104044 0.7500039875041014 0.1940269736724838 O
  atom_frac 0.5000015630412655 0.7500077460082766 0.1107027685360918 O
  atom_frac 0.3333333305094743 0.9166742222222212 0.1392850519289052 O
  atom_frac 0.4999770159392891 0.9166607291511496 0.2226157375401541 O
  atom_frac 0.5014684058586695 0.9167229330409665 0.6251617497370846 Ti
  atom_frac 0.3333333148506773 0.9176010617571110 0.5432696100486295 Ti
  atom_frac 0.5005005542443519 0.7499257331106052 0.3750069237202922 Ti
  atom_frac 0.3333333491682120 0.7529790896797524 0.4581249016846345 Ti
  atom_frac 0.4995316705947946 0.9166109928120711 0.3606843385480696 O
  atom_frac 0.3333333217195623 0.9168537714968140 0.6112090011461729 O
  atom_frac 0.5013541785447649 0.7505401422348441 0.6393166054762974 O
  atom_frac 0.3333333440224983 0.7494817571119690 0.3897346081188055 O
  atom_frac 0.3333332422903600 0.7546280299894286 0.5286116123390153 O
  atom_frac 0.5005402056324584 0.7513547401534381 0.4440164214491492 O
  atom_frac 0.3333333557762114 0.9165714179518627 0.4730088263224204 O
  atom_frac 0.5011822466741742 0.9187849124995682 0.5564857263903230 O
  atom_frac 0.5000237673254251 0.9166732630456975 0.9583354074174314 Ti
  atom_frac 0.3333333495768790 0.9166114354333191 0.8750313572653832 Ti
  atom_frac 0.4999258026974617 0.7505003089018223 0.7083267138379867 Ti
  atom_frac 0.3333333425749450 0.7499488501138971 0.7916958606082729 Ti
  atom_frac 0.5000662605196011 0.9166540647689067 0.6943767021587003 O
  atom_frac 0.3333333197478926 0.9166527146864567 0.9440507334652944 O
  atom_frac 0.5000077656402068 0.7500015662046560 0.9726303071293347 O
  atom_frac 0.3333333364596569 0.7498507909040987 0.7225958099522192 O
  atom_frac 0.3333333291218410 0.7499625625788849 0.8607189396747671 O
  atom_frac 0.4999597388203251 0.7498892826441715 0.7773644579094470 O
  atom_frac 0.3333333676880550 0.9166014052450003 0.8059980189628608 O
  atom_frac 0.5000059069883237 0.9166514680758975 0.8893010033933236 O
  atom_frac 0.8333333398735062 0.2499280867627665 0.2915689706981736 Ti
  atom_frac 0.6666061335956845 0.2499919533323338 0.2083284448141700 Ti
  atom_frac 0.8333333345173444 0.0833333317704516 0.0416668526461494 Ti
  atom_frac 0.6666723068564038 0.0833333350998452 0.1250008431395220 Ti
  atom_frac 0.8333333440024913 0.2499957009379722 0.0273695135876784 O
  atom_frac 0.6665929193645136 0.2499949019260556 0.2773580882420841 O
  atom_frac 0.8333333416323883 0.0833333225939577 0.3057952985406849 O
  atom_frac 0.6666709358473990 0.0833333554420270 0.0559641694239784 O
  atom_frac 0.6666475468253438 0.0833333350949409 0.1940382531606207 O
  atom_frac 0.8333333399682619 0.0833333282770412 0.1107063744032041 O
  atom_frac 0.6666575574843916 0.2499918458871065 0.1392912747094120 O
  atom_frac 0.8333333426282479 0.2499595148981951 0.2225720084602205 O
  atom_frac 0.8333333269804548 0.2500713144534326 0.6252863905206850 Ti
  atom_frac 0.6671345281225348 0.2495320666869992 0.5416669105104591 Ti
  atom_frac 0.8333333515640458 0.0833333262454805 0.3748850487095372 Ti
  atom_frac 0.6665955258387757 0.0833333622969423 0.4580466915739879 Ti
  atom_frac 0.8333333461229309 0.2499489741620859 0.3605718313639722 O
  atom_frac 0.6672487509045124 0.2501422944615166 0.6109363507292199 O
  atom_frac 0.8333333282187518 0.0833333757120664 0.6396091539011161 O
  atom_frac 0.6664547621969469 0.0833332939839940 0.3891031025780536 O
  atom_frac 0.6678562075228569 0.0833333616206384 0.5271088072550122 O
  atom_frac 0.8333333477665882 0.0833333860127979 0.4437238981037652 O
  atom_frac 0.6665248312910909 0.2494178288316637 0.4723967755091802 O
  atom_frac 0.8333333204928045 0.2488100099747340 0.5562248945275960 O
  atom_frac 0.8333333264859424 0.2499943401778052 0.9583322006094510 Ti
  atom_frac 0.6666747283319462 0.2500604722597914 0.8750052435762644 Ti
  atom_frac 0.8333333347574016 0.0833334258909706 0.7084486356991153 Ti
  atom_frac 0.6667385642981826 0.0833332471907656 0.7917640706993025 Ti
  atom_frac 0.8333333724955599 0.2502120074901992 0.6942305492510511 O
  atom_frac 0.6666748259440874 0.2500090948126235 0.9440417881631701 O
  atom_frac 0.8333333230628276 0.0833333242709587 0.9726266745692300 O
  atom_frac 0.6667176669145902 0.0833333528024757 0.7227618552358969 O
  atom_frac 0.6667072343383738 0.0833332772123092 0.8607616870155426 O
  atom_frac 0.8333333230659429 0.0833333262166349 0.7775377442843207 O
  atom_frac 0.6666717408909386 0.2500736838412826 0.8059749657653655 O
  atom_frac 0.8333333302680015 0.2500190940155296 0.8892954264274855 O
  atom_frac 0.8333333394528508 0.5833333306405272 0.2915325050806485 Ti
  atom_frac 0.6666114739104362 0.5833333333547814 0.2083023343659611 Ti
  atom_frac 0.8333333436687684 0.4166626033756046 0.0416646034897348 Ti
  atom_frac 0.6666732466206217 0.4166429010111879 0.1249976312731005 Ti
  atom_frac 0.8333333434641624 0.5833333254019346 0.0273738802614559 O
  atom_frac 0.6666014641907669 0.5833333092319476 0.2773350305469174 O
  atom_frac 0.8333333365439568 0.4166595290449678 0.3057568572387862 O
  atom_frac 0.6666712898958902 0.4166560797728239 0.0559620783021083 O
  atom_frac 0.6666514693535192 0.4166607601592346 0.1940326738647589 O
  atom_frac 0.8333333403459608 0.4166578153394012 0.1107060769632632 O
  atom_frac 0.6666527207959483 0.5833333337798127 0.1392823332222722 O
  atom_frac 0.8333333412086348 0.5833333417336969 0.2225472053302771 O
  atom_frac 0.8333333209874921 0.5833334041778953 0.6246038981306602 Ti
  atom_frac 0.6676007442034730 0.5833333620775867 0.5400638565511995 Ti
  atom_frac 0.8333333471271769 0.4166992303908464 0.3747749246112705 Ti
  atom_frac 0.6667230542406015 0.4151980361838495 0.4581713220670776 Ti
  atom_frac 0.8333333486606178 0.5833333200786428 0.3605678273494470 O
  atom_frac 0.6665708976808538 0.5833333688802330 0.6103239135637391 O
  atom_frac 0.8333333022123355 0.4168747186175304 0.6392989083905952 O
  atom_frac 0.6666541394784347 0.4166002742281409 0.3889569654597831 O
  atom_frac 0.6687847912843097 0.4154842714243307 0.5268479323906278 O
  atom_frac 0.8333333430825151 0.4158251683101427 0.4436763167421810 O
  atom_frac 0.6668538292981151 0.5833333664551529 0.4721239336476841 O
  atom_frac 0.8333332770664348 0.5833333766332292 0.5557992373756780 O
  atom_frac 0.8333333259617839 0.5833333278155554 0.9583387630705873 Ti
  atom_frac 0.6666768428639065 0.5833332607359365 0.8750058898447070 Ti
  atom_frac 0.8333333419464761 0.4170679333341066 0.7083503208940423 Ti
  atom_frac 0.6666663485582951 0.4167017623818450 0.7916626361881975 Ti
  atom_frac 0.8333333649636524 0.5833333727977016 0.6939249853037585 O
  atom_frac 0.6666742419013817 0.5833333047339931 0.9440480305299456 O
  atom_frac 0.8333333297413665 0.4166642253401547 0.9726306590849589 O
  atom_frac 0.6666110163137399 0.4171351476201132 0.7226493136620777 O
  atom_frac 0.6666607260282439 0.4166895975447799 0.8607179242927229 O
  atom_frac 0.8333333313164759 0.4167676262943337 0.7773853173541372 O
  atom_frac 0.6666627636557042 0.5833332956124204 0.8059849022616682 O
  atom_frac 0.8333333302051413 0.5833332759578719 0.8893007970267124 O
  atom_frac 0.8333333421785509 0.9167385709860945 0.2915689742153642 Ti
  atom_frac 0.6666061338582963 0.9166747182211566 0.2083284474012827 Ti
  atom_frac 0.8333333350340849 0.7500040589522377 0.0416646039816346 Ti
  atom_frac 0.6666732420669680 0.7500237690028796 0.1249976338535017 Ti
  atom_frac 0.8333333326770610 0.9166709535623372 0.0273695142920855 O
  atom_frac 0.6665929187890692 0.9166717242999619 0.2773580892423783 O
  atom_frac 0.8333333371251250 0.7500071099938940 0.3057568571054807 O
  atom_frac 0.6666712880439836 0.7500105626892545 0.0559620801928334 O
  atom_frac 0.6666514674469650 0.7500059043096583 0.1940326757517016 O
  atom_frac 0.8333333402017920 0.7500088564703697 0.1107060779611662 O
  atom_frac 0.6666575625738325 0.9166748205244614 0.1392912755069572 O
  atom_frac 0.8333333433055997 0.9167071643819655 0.2225720088215137 O
  atom_frac 0.8333333227209592 0.9165955049391473 0.6252863924084680 Ti
  atom_frac 0.6671345278959102 0.9171346511893802 0.5416669116564410 Ti
  atom_frac 0.8333333470347268 0.7499674136506573 0.3747749261573596 Ti
  atom_frac 0.6667230531899982 0.7514687049730235 0.4581713212030801 Ti
  atom_frac 0.8333333459194547 0.9167176654597612 0.3605718303950820 O
  atom_frac 0.6672487463017139 0.9165244467438544 0.6109363485999949 O
  atom_frac 0.8333333128879568 0.7497920325056001 0.6392989049834621 O
  atom_frac 0.6666541369041848 0.7500663443086901 0.3889569659494032 O
  atom_frac 0.6687847937902272 0.7511824652109103 0.5268479326665239 O
  atom_frac 0.8333333433664383 0.7508415795840010 0.4436763161658692 O
  atom_frac 0.6665248358660146 0.9172488999347151 0.4723967726681703 O
  atom_frac 0.8333333174091742 0.9178567338837654 0.5562248959068272 O
  atom_frac 0.8333333483958215 0.9166723173449802 0.9583322021937816 Ti
  atom_frac 0.6666747247976897 0.9166060664370054 0.8750052666345621 Ti
  atom_frac 0.8333333341193165 0.7495989118095716 0.7083503160077206 Ti
  atom_frac 0.6666663463692816 0.7499647558244352 0.7916626160264726 Ti
  atom_frac 0.8333333240018437 0.9164547381773217 0.6942305495865619 O
  atom_frac 0.6666748359558258 0.9166575703216709 0.9440417889431401 O
  atom_frac 0.8333333224629532 0.7500024217040406 0.9726306619254986 O
  atom_frac 0.6666110104216176 0.7495315800301066 0.7226493207154904 O
  atom_frac 0.6666607269577206 0.7499769751544374 0.8607179284081511 O
  atom_frac 0.8333333210619825 0.7498989442833641 0.7773853138205166 O
  atom_frac 0.6666717445674027 0.9165928744948879 0.8059749680985956 O
  atom_frac 0.8333333433786977 0.9166474372205782 0.8892954281092598 O
  
  -----------------------------------------------------------------------
  Completed first pass over input file geometry.in .
  -----------------------------------------------------------------------
  

  Basic array size parameters:
  | Number of species                 :        3
  | Number of atoms                   :      324
  | Number of lattice vectors         :        3
  | Max. basis fn. angular momentum   :        3
  | Max. atomic/ionic basis occupied n:        6
  | Max. number of basis fn. types    :        3
  | Max. radial fns per species/type  :       14
  | Max. logarithmic grid size        :     1487
  | Max. radial integration grid size :       72
  | Max. angular integration grid size:      302
  | Max. angular grid division number :        8
  | Radial grid for Hartree potential :     1487
  | Number of spin channels           :        1
  | Max. number of (n,l) shells per species with '+U' treatment:        1

------------------------------------------------------------
          Reading file control.in.
------------------------------------------------------------
  Spin treatment: No spin polarisation.
  Scalar relativistic treatment of kinetic energy: on-site free-atom approximation to ZORA.
  Forces will be computed.
  XC: Using LibXC. Please refer to LibXC output for further details.
  Using libxc - Initializing
  Libxc version: 6.1.0


  ** PLEASE ** be careful using LibXC. Whilst most of the LDA, GGA and MGGA functionals,
  and hybrid variations therein, should be stable (though we always recommend testing!),
  there are several fancy functionals with e.g. range-separation, like HSE03/HSE06/LC-PBEh,
  and also MGGA functionals that depend on the laplacian of the density, like BR89,
  that are not fully implemented due to the infrastrucutre for these functionals being incomplete or non-generic.
  If you want to use these functionals please contact the development team and we will work on them with you!

  You have selected libxc functional MGGA_X_MBEEF (249)
    - Description: mBEEF exchange
    - Type: MGGA(Exchange)
    - Reference to Literature:
      [1] J. Wellendorff, K. T. Lundgaard, K. W. Jacobsen, and T. Bligaard.,  J. Chem. Phys. 140, 144107 (2014)

  You have selected libxc functional GGA_C_PBE_SOL (133)
    - Description: Perdew, Burke & Ernzerhof SOL
    - Type: GGA(Correlation)
    - Reference to Literature:
      [1] J. P. Perdew, A. Ruzsinszky, G. I. Csonka, O. A. Vydrov, G. E. Scuseria, L. A. Constantin, X. Zhou, and K. Burke.,  Phys. Rev. Lett. 100, 136406 (2008)

  Switching on meta-ggas
  Found k-point grid:         4         4         2
  Occupation type: Gaussian broadening, width =   0.100000E+00 eV.
  Fixing petukhov mixing factor to   1.000000000000
  hydrogenic basis funktions also used for DFT+U reference states
  Reading DFT+U occupation matrix, from file
  Reading DFT+U occupation matrix, from file
  DFT+U occupation matrix, is again calculated if total energy is converged within   0.001000000000
  Calculating density of states with
  | energy interval :-18.000000  0.000000
  | points & broadening :   200  0.100000
  Calculating atom-projected density of states with
  | energy interval :-18.000000  0.000000
  | points & broadening :   200  0.100000
  Convergence accuracy of total energy:  0.1000E-05
  Convergence accuracy of sum of eigenvalues:  0.1000E-02
  Convergence accuracy of self-consistent charge density:  0.1000E-05
  Convergence accuracy of forces:  0.1000E-03
 
  Reading configuration options for species Ti                  .
  | Found nuclear charge :  22.0000
  | Found atomic mass :    47.8670000000000      amu
  | Found l_max for Hartree potential  :   4
  | Found cutoff potl. onset [A], width [A], scale factor :    3.50000    1.50000    1.00000
  | Threshold for basis-dependent cutoff potential is   0.100000E-03
  | Found data for basic radial integration grid :    48 points, outermost radius =    5.000 A
  | Found multiplier for basic radial grid :   1
  | Found angular grid specification: user-specified.
  | Specified grid contains     5 separate shells.
  | Check grid settings after all constraints further below.
  | Found free-atom valence shell :  4 s   2.000
  | Found free-atom valence shell :  3 p   6.000
  | Found free-atom valence shell :  3 d   2.000
  | Found free-ion valence shell :  4 s   1.000
  | Found free-ion valence shell :  3 p   6.000
  | Found free-ion valence shell :  3 d   1.000
  | Found hydrogenic basis function :  4 f   8.000
  | Found hydrogenic basis function :  3 d   2.700
  | Found ionic basis function :  4 p , default cutoff radius.
  | Found ionic basis function :  4 s , default cutoff radius.
  | Found request for '+U' treatment for  3 d shell, U =     2.575000 eV.
  | Found coefficents for linear combination of hubbard projectors 
  Species Ti                  : Missing cutoff potential type.
  Defaulting to exp(1/x)/(1-x)^2 type cutoff potential.
  Species Ti: No 'logarithmic' tag. Using default grid for free atom:
  | Default logarithmic grid data [bohr] : 0.1000E-03 0.1000E+03 0.1012E+01
  | Will include ionic basis functions of  2.0-fold positive Ti                   ion.
  Species Ti: On-site basis accuracy parameter (for Gram-Schmidt orthonormalisation) not specified.
  Using default value basis_acc =  0.1000000E-03.
  Species Ti                  : Using default innermost maximum threshold i_radial=  2 for radial functions.
  Species Ti                  : Default cutoff onset for free atom density etc. : 0.35000000E+01 AA.
  Species Ti                  : Basic radial grid will be enhanced according to radial_multiplier =   1, to contain    48 grid points.
 
  Reading configuration options for species O                   .
  | Found nuclear charge :   8.0000
  | Found atomic mass :    15.9994000000000      amu
  | Found l_max for Hartree potential  :   4
  | Found cutoff potl. onset [A], width [A], scale factor :    3.50000    1.50000    1.00000
  | Threshold for basis-dependent cutoff potential is   0.100000E-03
  | Found data for basic radial integration grid :    36 points, outermost radius =    5.000 A
  | Found multiplier for basic radial grid :   1
  | Found angular grid specification: user-specified.
  | Specified grid contains     5 separate shells.
  | Check grid settings after all constraints further below.
  | Found free-atom valence shell :  2 s   2.000
  | Found free-atom valence shell :  2 p   4.000
  | Found free-ion valence shell :  2 s   1.000
  | Found free-ion valence shell :  2 p   3.000
  | Found hydrogenic basis function :  2 p   1.800
  | Found hydrogenic basis function :  3 d   7.600
  | Found hydrogenic basis function :  3 s   6.400
  Species O                   : Missing cutoff potential type.
  Defaulting to exp(1/x)/(1-x)^2 type cutoff potential.
  Species O : No 'logarithmic' tag. Using default grid for free atom:
  | Default logarithmic grid data [bohr] : 0.1000E-03 0.1000E+03 0.1012E+01
  Species O : On-site basis accuracy parameter (for Gram-Schmidt orthonormalisation) not specified.
  Using default value basis_acc =  0.1000000E-03.
  Species O                   : Using default innermost maximum threshold i_radial=  2 for radial functions.
  Species O                   : Default cutoff onset for free atom density etc. : 0.35000000E+01 AA.
  Species O                   : Basic radial grid will be enhanced according to radial_multiplier =   1, to contain    36 grid points.
 
  Reading configuration options for species Pt                  .
  | Found nuclear charge :  78.0000
  | Found atomic mass :    195.084000000000      amu
  | Found l_max for Hartree potential  :   4
  | Found cutoff potl. onset [A], width [A], scale factor :    3.50000    1.50000    1.00000
  | Threshold for basis-dependent cutoff potential is   0.100000E-03
  | Found data for basic radial integration grid :    72 points, outermost radius =    5.000 A
  | Found multiplier for basic radial grid :   1
  | Found angular grid specification: user-specified.
  | Specified grid contains     5 separate shells.
  | Check grid settings after all constraints further below.
  | Found free-atom valence shell :  6 s   1.000
  | Found free-atom valence shell :  5 p   6.000
  | Found free-atom valence shell :  5 d   9.000
  | Found free-atom valence shell :  4 f  14.000
  | Found free-ion valence shell :  6 s   0.000
  | Found free-ion valence shell :  5 p   6.000
  | Found free-ion valence shell :  5 d   8.000
  | Found free-ion valence shell :  4 f  14.000
  | Found hydrogenic basis function :  4 f   7.400
  | Found ionic basis function :  6 p , default cutoff radius.
  | Found ionic basis function :  6 s , default cutoff radius.
  | Found hydrogenic basis function :  3 d   2.600
  | Found request for '+U' treatment for  5 d shell, U =     0.000000 eV.
  | Found coefficents for linear combination of hubbard projectors 
  Species Pt                  : Missing cutoff potential type.
  Defaulting to exp(1/x)/(1-x)^2 type cutoff potential.
  Species Pt: No 'logarithmic' tag. Using default grid for free atom:
  | Default logarithmic grid data [bohr] : 0.1000E-03 0.1000E+03 0.1012E+01
  | Will include ionic basis functions of  2.0-fold positive Pt                   ion.
  Species Pt: On-site basis accuracy parameter (for Gram-Schmidt orthonormalisation) not specified.
  Using default value basis_acc =  0.1000000E-03.
  Species Pt                  : Using default innermost maximum threshold i_radial=  2 for radial functions.
  Species Pt                  : Default cutoff onset for free atom density etc. : 0.35000000E+01 AA.
  Species Pt                  : Basic radial grid will be enhanced according to radial_multiplier =   1, to contain    72 grid points.
 
  Finished reading input file 'control.in'.
 
------------------------------------------------------------


------------------------------------------------------------
          Reading geometry description geometry.in.
------------------------------------------------------------
  | The smallest distance between any two atoms is         1.89725327 AA.
  | The first atom of this pair is atom number                     50 .
  | The second atom of this pair is atom number                    60 .
  | Wigner-Seitz cell of the first atom image           0     0     0 .
  | (The Wigner-Seitz cell of the second atom is 0 0 0  by definition.)

  Symmetry information by spglib:
  | Precision set to  0.1E-04
  | Number of Operations  : 4
  | Space group           : 25
  | International         : Pmm2    Sei
  | Schoenflies           : C2v^1
  Input structure read successfully.
  The structure contains      324 atoms,  and a total of       4160.000 electrons.

  Input geometry:
  | Unit cell:
  |       11.35500000        0.00000000        0.00000000
  |        0.00000000       11.35500000        0.00000000
  |        0.00000000        0.00000000       28.53990000
  | Atomic structure:
  |       Atom                x [A]            y [A]            z [A]
  |    1: Species Ti            1.89289982        2.83875317        8.32424413
  |    2: Species Ti            0.00068749        2.83865856        5.94567294
  |    3: Species Ti            1.89245425        0.94624994        1.18923213
  |    4: Species Ti           -0.00006399        0.94624996        3.56751151
  |    5: Species O             1.89237988        2.83869731        0.78118300
  |    6: Species O             0.00083757        2.83869212        7.91577206
  |    7: Species O             1.89364823        0.94624970        8.73171751
  |    8: Species O            -0.00004844        0.94624969        1.59721175
  |    9: Species O             0.00021726        0.94624998        5.53783226
  |   10: Species O             1.89247265        0.94625004        3.15943601
  |   11: Species O             0.00010350        2.83865738        3.97535896
  |   12: Species O             1.89276111        2.83881733        6.35343087
  |   13: Species Ti            1.87582585        2.83811129       17.84205414
  |   14: Species Ti           -0.00531290        2.83343661       15.45911939
  |   15: Species Ti            1.89705284        0.94624939       10.70198699
  |   16: Species Ti            0.00080830        0.94625035       13.07260671
  |   17: Species O             1.89781811        2.83938160       10.29389495
  |   18: Species O            -0.00660991        2.84036596       17.43606229
  |   19: Species O             1.88294371        0.94625028       18.25573913
  |   20: Species O             0.00240652        0.94624955       11.10496362
  |   21: Species O            -0.01350758        0.94625034       15.04363257
  |   22: Species O             1.89486027        0.94625044       12.67268935
  |   23: Species O             0.00161100        2.83213941       13.48215663
  |   24: Species O             1.87907520        2.81469793       15.88204711
  |   25: Species Ti            1.89223024        2.83867508       27.35079691
  |   26: Species Ti           -0.00009138        2.83943652       24.97256264
  |   27: Species Ti            1.89286995        0.94625013       20.22219561
  |   28: Species Ti           -0.00081635        0.94624928       22.59686765
  |   29: Species O             1.89174724        2.83889362       19.81744188
  |   30: Species O            -0.00009251        2.83885290       26.94285816
  |   31: Species O             1.89239973        0.94624992       27.75867675
  |   32: Species O            -0.00057907        0.94625011       20.62755095
  |   33: Species O            -0.00046041        0.94624950       24.56605253
  |   34: Species O             1.89241933        0.94624915       22.19194689
  |   35: Species O            -0.00005745        2.83958689       23.00244507
  |   36: Species O             1.89243309        2.83892167       25.38056201
  |   37: Species Ti            1.89308050        6.62374958        8.32329559
  |   38: Species Ti            0.00062683        6.62375006        5.94492773
  |   39: Species Ti            1.89247579        4.73122571        1.18916781
  |   40: Species Ti           -0.00007457        4.73098014        3.56742001
  |   41: Species O             1.89237574        6.62375001        0.78130038
  |   42: Species O             0.00074052        6.62374973        7.91511399
  |   43: Species O             1.89375645        4.73170677        8.73231234
  |   44: Species O            -0.00005241        4.73112980        1.59715215
  |   45: Species O             0.00017270        4.73118292        5.53767306
  |   46: Species O             1.89248236        4.73116213        3.15944605
  |   47: Species O             0.00015842        6.62375003        3.97510377
  |   48: Species O             1.89292499        6.62374994        6.35340214
  |   49: Species Ti            1.85868103        6.62375018       17.84336814
  |   50: Species Ti           -0.01060853        6.62375031       15.41336813
  |   51: Species Ti            1.88681643        4.73209204       10.70266003
  |   52: Species Ti           -0.00063982        4.71457357       13.07616368
  |   53: Species O             1.89418777        6.62374971       10.29542171
  |   54: Species O             0.00108604        6.62375022       17.41858373
  |   55: Species O             1.87712278        4.72511728       18.24603236
  |   56: Species O             0.00014249        4.73049607       11.10079284
  |   57: Species O            -0.02405199        4.71782376       15.03618715
  |   58: Species O             1.88636610        4.71586749       12.67218418
  |   59: Species O            -0.00212513        6.62375037       13.47436976
  |   60: Species O             1.83995198        6.62375054       15.83169310
  |   61: Species Ti            1.89217585        6.62375005       27.35089162
  |   62: Species Ti           -0.00011540        6.62374931       24.97258110
  |   63: Species Ti            1.89334258        4.72556921       20.21557393
  |   64: Species Ti            0.00000372        4.73164852       22.59397243
  |   65: Species O             1.89838075        6.62375036       19.79524058
  |   66: Species O            -0.00008589        6.62375007       26.94303633
  |   67: Species O             1.89241211        4.73123211       27.75877181
  |   68: Species O             0.00063196        4.73656957       20.62433960
  |   69: Species O             0.00006756        4.73151038       24.56480390
  |   70: Species O             1.89295737        4.73250592       22.18590394
  |   71: Species O             0.00004448        6.62374936       23.00272866
  |   72: Species O             1.89245473        6.62374948       25.38072519
  |   73: Species Ti            1.89289983       10.40874596        8.32424414
  |   74: Species Ti            0.00068749       10.40884143        5.94567301
  |   75: Species Ti            1.89247583        8.51627438        1.18916776
  |   76: Species Ti           -0.00007462        8.51651995        3.56741995
  |   77: Species O             1.89237995       10.40880263        0.78118266
  |   78: Species O             0.00083758       10.40880742        7.91577211
  |   79: Species O             1.89375635        8.51579262        8.73231234
  |   80: Species O            -0.00005244        8.51637049        1.59715212
  |   81: Species O             0.00017271        8.51631709        5.53767308
  |   82: Species O             1.89248237        8.51633784        3.15944595
  |   83: Species O             0.00010361       10.40884259        3.97535903
  |   84: Species O             1.89276112       10.40868257        6.35343089
  |   85: Species Ti            1.87582594       10.40938895       17.84205387
  |   86: Species Ti           -0.00531294       10.41406398       15.45911941
  |   87: Species Ti            1.88681652        8.51540670       10.70266009
  |   88: Species Ti           -0.00063981        8.53292725       13.07616365
  |   89: Species O             1.89781829       10.40811783       10.29389494
  |   90: Species O            -0.00660986       10.40713508       17.43606227
  |   91: Species O             1.87712255        8.52238344       18.24603220
  |   92: Species O             0.00014251        8.51700339       11.10079286
  |   93: Species O            -0.02405204        8.52967702       15.03618718
  |   94: Species O             1.88636613        8.53163325       12.67218419
  |   95: Species O             0.00161096       10.41536130       13.48215657
  |   96: Species O             1.87907524       10.43280295       15.88204699
  |   97: Species Ti            1.89223013       10.40882490       27.35079686
  |   98: Species Ti           -0.00009148       10.40806188       24.97256208
  |   99: Species Ti            1.89334261        8.52193130       20.21557388
  |  100: Species Ti            0.00000366        8.51584955       22.59397238
  |  101: Species O             1.89174788       10.40860696       19.81744178
  |  102: Species O            -0.00009241       10.40864669       26.94285816
  |  103: Species O             1.89241214        8.51626789       27.75877167
  |  104: Species O             0.00063197        8.51093124       20.62433924
  |  105: Species O             0.00006768        8.51598841       24.56480368
  |  106: Species O             1.89295738        8.51499297       22.18590377
  |  107: Species O            -0.00005790       10.40791209       23.00244511
  |  108: Species O             1.89243301       10.40857743       25.38056176
  |  109: Species Ti            5.67710031        2.83875316        8.32424414
  |  110: Species Ti            3.78500010        2.83863465        5.94565472
  |  111: Species Ti            5.67754592        0.94625002        1.18923194
  |  112: Species Ti            3.78500014        0.94625000        3.56732519
  |  113: Species O             5.67762020        2.83869736        0.78118272
  |  114: Species O             3.78500009        2.83879359        7.91548914
  |  115: Species O             5.67635195        0.94624970        8.73171750
  |  116: Species O             3.78500016        0.94624993        1.59708750
  |  117: Species O             3.78500008        0.94624995        5.53767954
  |  118: Species O             5.67752747        0.94624992        3.15943601
  |  119: Species O             3.78500014        2.83866413        3.97518145
  |  120: Species O             5.67723903        2.83881734        6.35343090
  |  121: Species Ti            5.69417379        2.83811143       17.84205396
  |  122: Species Ti            3.78499974        2.82814141       15.50486072
  |  123: Species Ti            5.67294765        0.94624939       10.70198700
  |  124: Species Ti            3.78500024        0.94625122       13.09207530
  |  125: Species O             5.67218230        2.83938160       10.29389497
  |  126: Species O             3.78499985        2.83662597       17.44384398
  |  127: Species O             5.68705588        0.94625027       18.25573907
  |  128: Species O             3.78500017        0.94625014       11.11368308
  |  129: Species O             3.78499984        0.94625068       15.05577581
  |  130: Species O             5.67514010        0.94625043       12.67268933
  |  131: Species O             3.78500026        2.83983298       13.49962490
  |  132: Species O             5.69092443        2.81469822       15.88204706
  |  133: Species Ti            5.67777003        2.83867516       27.35079681
  |  134: Species Ti            3.78500005        2.83937686       24.97330764
  |  135: Species Ti            5.67713015        0.94625023       20.22219536
  |  136: Species Ti            3.78500012        0.94625002       22.59790841
  |  137: Species O             5.67825246        2.83889373       19.81744164
  |  138: Species O             3.78500006        2.83890858       26.94311355
  |  139: Species O             5.67760059        0.94625003       27.75867681
  |  140: Species O             3.78500007        0.94625092       20.62766485
  |  141: Species O             3.78499996        0.94624973       24.56676001
  |  142: Species O             5.67758091        0.94624926       22.19194704
  |  143: Species O             3.78499998        2.83949042       23.00310289
  |  144: Species O             5.67756714        2.83892156       25.38056161
  |  145: Species Ti            5.67691960        6.62374958        8.32329563
  |  146: Species Ti            3.78500010        6.62375000        5.94472974
  |  147: Species Ti            5.67752428        4.73122571        1.18916759
  |  148: Species Ti            3.78500006        4.73092591        3.56732565
  |  149: Species O             5.67762433        6.62374996        0.78130009
  |  150: Species O             3.78500008        6.62374968        7.91543968
  |  151: Species O             5.67624372        4.73170676        8.73231236
  |  152: Species O             3.78500011        4.73112639        1.59703483
  |  153: Species O             3.78500009        4.73120461        5.53751046
  |  154: Species O             5.67751776        4.73116213        3.15944589
  |  155: Species O             3.78500014        6.62374997        3.97511314
  |  156: Species O             5.67707514        6.62374994        6.35340218
  |  157: Species Ti            5.71131772        6.62375010       17.84336726
  |  158: Species Pt            3.78499837        6.62375061       15.45910377
  |  159: Species Ti            5.68318388        4.73209203       10.70266004
  |  160: Species Ti            3.78500018        4.69742453       13.07483875
  |  161: Species O             5.67581252        6.62374971       10.29542172
  |  162: Species O             3.78499901        6.62375043       17.44698512
  |  163: Species O             5.69287659        4.72511740       18.24603197
  |  164: Species O             3.78500012        4.73713415       11.12298676
  |  165: Species O             3.78499894        4.67870001       15.08652284
  |  166: Species O             5.68363406        4.71586769       12.67218425
  |  167: Species O             3.78499944        6.62375050       13.47120544
  |  168: Species O             5.73004541        6.62375052       15.83169241
  |  169: Species Ti            5.67782442        6.62374997       27.35089151
  |  170: Species Ti            3.78500005        6.62374986       24.97350605
  |  171: Species Ti            5.67665744        4.72556941       20.21557359
  |  172: Species Ti            3.78500003        4.73183054       22.59492071
  |  173: Species O             5.67161863        6.62375032       19.79524015
  |  174: Species O             3.78500006        6.62375013       26.94310500
  |  175: Species O             5.67758812        4.73123211       27.75877156
  |  176: Species O             3.78499997        4.73294494       20.62281214
  |  177: Species O             3.78500008        4.73167444       24.56483252
  |  178: Species O             5.67704273        4.73250597       22.18590378
  |  179: Species O             3.78499997        6.62374964       23.00277889
  |  180: Species O             5.67754549        6.62374961       25.38072477
  |  181: Species Ti            5.67710027       10.40874597        8.32424417
  |  182: Species Ti            3.78500008       10.40886530        5.94565470
  |  183: Species Ti            5.67752432        8.51627431        1.18916758
  |  184: Species Ti            3.78500014        8.51657408        3.56732561
  |  185: Species O             5.67762025       10.40880263        0.78118294
  |  186: Species O             3.78500009       10.40870555        7.91548912
  |  187: Species O             5.67624381        8.51579263        8.73231237
  |  188: Species O             3.78500015        8.51637369        1.59703481
  |  189: Species O             3.78500010        8.51629528        5.53751043
  |  190: Species O             5.67751775        8.51633796        3.15944594
  |  191: Species O             3.78499997       10.40883579        3.97518145
  |  192: Species O             5.67723902       10.40868258        6.35343089
  |  193: Species Ti            5.69417375       10.40938890       17.84205382
  |  194: Species Ti            3.78499979       10.41936006       15.50486034
  |  195: Species Ti            5.68318379        8.51540670       10.70266010
  |  196: Species Ti            3.78500018        8.55007756       13.07483888
  |  197: Species O             5.67218212       10.40811782       10.29389495
  |  198: Species O             3.78499987       10.41087458       17.44384377
  |  199: Species O             5.69287670        8.52238332       18.24603199
  |  200: Species O             3.78500012        8.51036535       11.12298674
  |  201: Species O             3.78499897        8.56880128       15.08652255
  |  202: Species O             5.68363403        8.53163307       12.67218427
  |  203: Species O             3.78500025       10.40766845       13.49962460
  |  204: Species O             5.69092441       10.43280268       15.88204698
  |  205: Species Ti            5.67776988       10.40882490       27.35079669
  |  206: Species Ti            3.78500018       10.40812285       24.97330743
  |  207: Species Ti            5.67665749        8.52193101       20.21557358
  |  208: Species Ti            3.78500010        8.51566919       22.59492069
  |  209: Species O             5.67825239       10.40860691       19.81744164
  |  210: Species O             3.78499985       10.40859158       26.94311353
  |  211: Species O             5.67758818        8.51626778       27.75877170
  |  212: Species O             3.78500004        8.51455573       20.62281216
  |  213: Species O             3.78499995        8.51582490       24.56483247
  |  214: Species O             5.67704283        8.51499280       22.18590389
  |  215: Species O             3.78500039       10.40800896       23.00310286
  |  216: Species O             5.67756707       10.40857742       25.38056171
  |  217: Species Ti            9.46250007        2.83793343        8.32134927
  |  218: Species Ti            7.56931265        2.83865863        5.94567298
  |  219: Species Ti            9.46250001        0.94624998        1.18916781
  |  220: Species Ti            7.57006404        0.94625002        3.56751156
  |  221: Species O             9.46250012        2.83870118        0.78112318
  |  222: Species O             7.56916260        2.83869211        7.91577210
  |  223: Species O             9.46250009        0.94624988        8.72736724
  |  224: Species O             7.57004848        0.94625025        1.59721180
  |  225: Species O             7.56978289        0.94625002        5.53783234
  |  226: Species O             9.46250008        0.94624994        3.15954885
  |  227: Species O             7.56989657        2.83865741        3.97535905
  |  228: Species O             9.46250011        2.83829029        6.35218286
  |  229: Species Ti            9.46249993        2.83955978       17.84561106
  |  230: Species Ti            7.57531257        2.83343662       15.45911946
  |  231: Species Ti            9.46250021        0.94624992       10.69918180
  |  232: Species Ti            7.56919220        0.94625033       13.07260677
  |  233: Species O             9.46250015        2.83817060       10.29068401
  |  234: Species O             7.57660957        2.84036575       17.43606236
  |  235: Species O             9.46249994        0.94625048       18.25438129
  |  236: Species O             7.56759382        0.94624955       11.10496364
  |  237: Species O             7.58350724        0.94625032       15.04363265
  |  238: Species O             9.46250016        0.94625060       12.66383568
  |  239: Species O             7.56838946        2.83213945       13.48215673
  |  240: Species O             9.46249985        2.82523766       15.87460287
  |  241: Species Ti            9.46249992        2.83868573       27.35070517
  |  242: Species Ti            7.57009154        2.83943666       24.97256215
  |  243: Species Ti            9.46250002        0.94625105       20.21905322
  |  244: Species Ti            7.57081640        0.94624902       22.59686740
  |  245: Species O             9.46250044        2.84115735       19.81327045
  |  246: Species O             7.57009265        2.83885327       26.94285823
  |  247: Species O             9.46249988        0.94624990       27.75866803
  |  248: Species O             7.57057911        0.94625022       20.62755107
  |  249: Species O             7.57046065        0.94624936       24.56605247
  |  250: Species O             9.46249988        0.94624992       22.19084947
  |  251: Species O             7.57005762        2.83958668       23.00244493
  |  252: Species O             9.46249997        2.83896681       25.38040254
  |  253: Species Ti            9.46250007        6.62374997        8.32030854
  |  254: Species Ti            7.56937329        6.62375000        5.94492779
  |  255: Species Ti            9.46250012        4.73120386        1.18910362
  |  256: Species Ti            7.57007472        4.73098014        3.56741990
  |  257: Species O             9.46250012        6.62374991        0.78124781
  |  258: Species O             7.56925963        6.62374973        7.91511404
  |  259: Species O             9.46250004        4.73116895        8.72627013
  |  260: Species O             7.57005250        4.73112979        1.59715212
  |  261: Species O             7.56982743        4.73118293        5.53767311
  |  262: Species O             9.46250008        4.73114949        3.15954037
  |  263: Species O             7.56984164        6.62375001        3.97510386
  |  264: Species O             9.46250009        6.62375010        6.35147499
  |  265: Species Ti            9.46249986        6.62375080       17.82613279
  |  266: Species Ti            7.58060645        6.62375033       15.41336846
  |  267: Species Ti            9.46250016        4.73161976       10.69603887
  |  268: Species Ti            7.57064028        4.71457370       13.07616371
  |  269: Species O             9.46250017        6.62374985       10.29056974
  |  270: Species O             7.56891254        6.62375040       17.41858346
  |  271: Species O             9.46249965        4.73361243       18.24552692
  |  272: Species O             7.56985775        4.73049611       11.10079290
  |  273: Species O             7.59405131        4.71782390       15.03618731
  |  274: Species O             9.46250011        4.72169479       12.66247771
  |  275: Species O             7.57212523        6.62375038       13.47436985
  |  276: Species O             9.46249936        6.62375049       15.86245465
  |  277: Species Ti            9.46249992        6.62374994       27.35089246
  |  278: Species Ti            7.57011555        6.62374918       24.97258060
  |  279: Species Ti            9.46250010        4.73580638       20.21624732
  |  280: Species Ti            7.56999639        4.73164851       22.59397247
  |  281: Species O             9.46250036        6.62375045       19.80454969
  |  282: Species O             7.57008602        6.62374968       26.94303639
  |  283: Species O             9.46249996        4.73122228       27.75878175
  |  284: Species O             7.56936809        4.73656960       20.62433915
  |  285: Species O             7.56993254        4.73151038       24.56480349
  |  286: Species O             9.46249998        4.73239640       22.18649922
  |  287: Species O             7.56995568        6.62374957       23.00272851
  |  288: Species O             9.46249996        6.62374935       25.38055582
[...]
  | writing   projected DOS (raw data) for species O to file atom_proj_dos_O0263_raw.dat.
  | writing   projected DOS (shifted by the chemical potential) for species O to file atom_proj_dos_O0264.dat.
  | writing   projected DOS (raw data) for species O to file atom_proj_dos_O0264_raw.dat.
  | writing   projected DOS (shifted by the chemical potential) for species Ti to file atom_proj_dos_Ti0265.dat.
  | writing   projected DOS (raw data) for species Ti to file atom_proj_dos_Ti0265_raw.dat.
  | writing   projected DOS (shifted by the chemical potential) for species Ti to file atom_proj_dos_Ti0266.dat.
  | writing   projected DOS (raw data) for species Ti to file atom_proj_dos_Ti0266_raw.dat.
  | writing   projected DOS (shifted by the chemical potential) for species Ti to file atom_proj_dos_Ti0267.dat.
  | writing   projected DOS (raw data) for species Ti to file atom_proj_dos_Ti0267_raw.dat.
  | writing   projected DOS (shifted by the chemical potential) for species Ti to file atom_proj_dos_Ti0268.dat.
  | writing   projected DOS (raw data) for species Ti to file atom_proj_dos_Ti0268_raw.dat.
  | writing   projected DOS (shifted by the chemical potential) for species O to file atom_proj_dos_O0269.dat.
  | writing   projected DOS (raw data) for species O to file atom_proj_dos_O0269_raw.dat.
  | writing   projected DOS (shifted by the chemical potential) for species O to file atom_proj_dos_O0270.dat.
  | writing   projected DOS (raw data) for species O to file atom_proj_dos_O0270_raw.dat.
  | writing   projected DOS (shifted by the chemical potential) for species O to file atom_proj_dos_O0271.dat.
  | writing   projected DOS (raw data) for species O to file atom_proj_dos_O0271_raw.dat.
  | writing   projected DOS (shifted by the chemical potential) for species O to file atom_proj_dos_O0272.dat.
  | writing   projected DOS (raw data) for species O to file atom_proj_dos_O0272_raw.dat.
  | writing   projected DOS (shifted by the chemical potential) for species O to file atom_proj_dos_O0273.dat.
  | writing   projected DOS (raw data) for species O to file atom_proj_dos_O0273_raw.dat.
  | writing   projected DOS (shifted by the chemical potential) for species O to file atom_proj_dos_O0274.dat.
  | writing   projected DOS (raw data) for species O to file atom_proj_dos_O0274_raw.dat.
  | writing   projected DOS (shifted by the chemical potential) for species O to file atom_proj_dos_O0275.dat.
  | writing   projected DOS (raw data) for species O to file atom_proj_dos_O0275_raw.dat.
  | writing   projected DOS (shifted by the chemical potential) for species O to file atom_proj_dos_O0276.dat.
  | writing   projected DOS (raw data) for species O to file atom_proj_dos_O0276_raw.dat.
  | writing   projected DOS (shifted by the chemical potential) for species Ti to file atom_proj_dos_Ti0277.dat.
  | writing   projected DOS (raw data) for species Ti to file atom_proj_dos_Ti0277_raw.dat.
  | writing   projected DOS (shifted by the chemical potential) for species Ti to file atom_proj_dos_Ti0278.dat.
  | writing   projected DOS (raw data) for species Ti to file atom_proj_dos_Ti0278_raw.dat.
  | writing   projected DOS (shifted by the chemical potential) for species Ti to file atom_proj_dos_Ti0279.dat.
  | writing   projected DOS (raw data) for species Ti to file atom_proj_dos_Ti0279_raw.dat.
  | writing   projected DOS (shifted by the chemical potential) for species Ti to file atom_proj_dos_Ti0280.dat.
  | writing   projected DOS (raw data) for species Ti to file atom_proj_dos_Ti0280_raw.dat.
  | writing   projected DOS (shifted by the chemical potential) for species O to file atom_proj_dos_O0281.dat.
  | writing   projected DOS (raw data) for species O to file atom_proj_dos_O0281_raw.dat.
  | writing   projected DOS (shifted by the chemical potential) for species O to file atom_proj_dos_O0282.dat.
  | writing   projected DOS (raw data) for species O to file atom_proj_dos_O0282_raw.dat.
  | writing   projected DOS (shifted by the chemical potential) for species O to file atom_proj_dos_O0283.dat.
  | writing   projected DOS (raw data) for species O to file atom_proj_dos_O0283_raw.dat.
  | writing   projected DOS (shifted by the chemical potential) for species O to file atom_proj_dos_O0284.dat.
  | writing   projected DOS (raw data) for species O to file atom_proj_dos_O0284_raw.dat.
  | writing   projected DOS (shifted by the chemical potential) for species O to file atom_proj_dos_O0285.dat.
  | writing   projected DOS (raw data) for species O to file atom_proj_dos_O0285_raw.dat.
  | writing   projected DOS (shifted by the chemical potential) for species O to file atom_proj_dos_O0286.dat.
  | writing   projected DOS (raw data) for species O to file atom_proj_dos_O0286_raw.dat.
  | writing   projected DOS (shifted by the chemical potential) for species O to file atom_proj_dos_O0287.dat.
  | writing   projected DOS (raw data) for species O to file atom_proj_dos_O0287_raw.dat.
  | writing   projected DOS (shifted by the chemical potential) for species O to file atom_proj_dos_O0288.dat.
  | writing   projected DOS (raw data) for species O to file atom_proj_dos_O0288_raw.dat.
  | writing   projected DOS (shifted by the chemical potential) for species Ti to file atom_proj_dos_Ti0289.dat.
  | writing   projected DOS (raw data) for species Ti to file atom_proj_dos_Ti0289_raw.dat.
  | writing   projected DOS (shifted by the chemical potential) for species Ti to file atom_proj_dos_Ti0290.dat.
  | writing   projected DOS (raw data) for species Ti to file atom_proj_dos_Ti0290_raw.dat.
  | writing   projected DOS (shifted by the chemical potential) for species Ti to file atom_proj_dos_Ti0291.dat.
  | writing   projected DOS (raw data) for species Ti to file atom_proj_dos_Ti0291_raw.dat.
  | writing   projected DOS (shifted by the chemical potential) for species Ti to file atom_proj_dos_Ti0292.dat.
  | writing   projected DOS (raw data) for species Ti to file atom_proj_dos_Ti0292_raw.dat.
  | writing   projected DOS (shifted by the chemical potential) for species O to file atom_proj_dos_O0293.dat.
  | writing   projected DOS (raw data) for species O to file atom_proj_dos_O0293_raw.dat.
  | writing   projected DOS (shifted by the chemical potential) for species O to file atom_proj_dos_O0294.dat.
  | writing   projected DOS (raw data) for species O to file atom_proj_dos_O0294_raw.dat.
  | writing   projected DOS (shifted by the chemical potential) for species O to file atom_proj_dos_O0295.dat.
  | writing   projected DOS (raw data) for species O to file atom_proj_dos_O0295_raw.dat.
  | writing   projected DOS (shifted by the chemical potential) for species O to file atom_proj_dos_O0296.dat.
  | writing   projected DOS (raw data) for species O to file atom_proj_dos_O0296_raw.dat.
  | writing   projected DOS (shifted by the chemical potential) for species O to file atom_proj_dos_O0297.dat.
  | writing   projected DOS (raw data) for species O to file atom_proj_dos_O0297_raw.dat.
  | writing   projected DOS (shifted by the chemical potential) for species O to file atom_proj_dos_O0298.dat.
  | writing   projected DOS (raw data) for species O to file atom_proj_dos_O0298_raw.dat.
  | writing   projected DOS (shifted by the chemical potential) for species O to file atom_proj_dos_O0299.dat.
  | writing   projected DOS (raw data) for species O to file atom_proj_dos_O0299_raw.dat.
  | writing   projected DOS (shifted by the chemical potential) for species O to file atom_proj_dos_O0300.dat.
  | writing   projected DOS (raw data) for species O to file atom_proj_dos_O0300_raw.dat.
  | writing   projected DOS (shifted by the chemical potential) for species Ti to file atom_proj_dos_Ti0301.dat.
  | writing   projected DOS (raw data) for species Ti to file atom_proj_dos_Ti0301_raw.dat.
  | writing   projected DOS (shifted by the chemical potential) for species Ti to file atom_proj_dos_Ti0302.dat.
  | writing   projected DOS (raw data) for species Ti to file atom_proj_dos_Ti0302_raw.dat.
  | writing   projected DOS (shifted by the chemical potential) for species Ti to file atom_proj_dos_Ti0303.dat.
  | writing   projected DOS (raw data) for species Ti to file atom_proj_dos_Ti0303_raw.dat.
  | writing   projected DOS (shifted by the chemical potential) for species Ti to file atom_proj_dos_Ti0304.dat.
  | writing   projected DOS (raw data) for species Ti to file atom_proj_dos_Ti0304_raw.dat.
  | writing   projected DOS (shifted by the chemical potential) for species O to file atom_proj_dos_O0305.dat.
  | writing   projected DOS (raw data) for species O to file atom_proj_dos_O0305_raw.dat.
  | writing   projected DOS (shifted by the chemical potential) for species O to file atom_proj_dos_O0306.dat.
  | writing   projected DOS (raw data) for species O to file atom_proj_dos_O0306_raw.dat.
  | writing   projected DOS (shifted by the chemical potential) for species O to file atom_proj_dos_O0307.dat.
  | writing   projected DOS (raw data) for species O to file atom_proj_dos_O0307_raw.dat.
  | writing   projected DOS (shifted by the chemical potential) for species O to file atom_proj_dos_O0308.dat.
  | writing   projected DOS (raw data) for species O to file atom_proj_dos_O0308_raw.dat.
  | writing   projected DOS (shifted by the chemical potential) for species O to file atom_proj_dos_O0309.dat.
  | writing   projected DOS (raw data) for species O to file atom_proj_dos_O0309_raw.dat.
  | writing   projected DOS (shifted by the chemical potential) for species O to file atom_proj_dos_O0310.dat.
  | writing   projected DOS (raw data) for species O to file atom_proj_dos_O0310_raw.dat.
  | writing   projected DOS (shifted by the chemical potential) for species O to file atom_proj_dos_O0311.dat.
  | writing   projected DOS (raw data) for species O to file atom_proj_dos_O0311_raw.dat.
  | writing   projected DOS (shifted by the chemical potential) for species O to file atom_proj_dos_O0312.dat.
  | writing   projected DOS (raw data) for species O to file atom_proj_dos_O0312_raw.dat.
  | writing   projected DOS (shifted by the chemical potential) for species Ti to file atom_proj_dos_Ti0313.dat.
  | writing   projected DOS (raw data) for species Ti to file atom_proj_dos_Ti0313_raw.dat.
  | writing   projected DOS (shifted by the chemical potential) for species Ti to file atom_proj_dos_Ti0314.dat.
  | writing   projected DOS (raw data) for species Ti to file atom_proj_dos_Ti0314_raw.dat.
  | writing   projected DOS (shifted by the chemical potential) for species Ti to file atom_proj_dos_Ti0315.dat.
  | writing   projected DOS (raw data) for species Ti to file atom_proj_dos_Ti0315_raw.dat.
  | writing   projected DOS (shifted by the chemical potential) for species Ti to file atom_proj_dos_Ti0316.dat.
  | writing   projected DOS (raw data) for species Ti to file atom_proj_dos_Ti0316_raw.dat.
  | writing   projected DOS (shifted by the chemical potential) for species O to file atom_proj_dos_O0317.dat.
  | writing   projected DOS (raw data) for species O to file atom_proj_dos_O0317_raw.dat.
  | writing   projected DOS (shifted by the chemical potential) for species O to file atom_proj_dos_O0318.dat.
  | writing   projected DOS (raw data) for species O to file atom_proj_dos_O0318_raw.dat.
  | writing   projected DOS (shifted by the chemical potential) for species O to file atom_proj_dos_O0319.dat.
  | writing   projected DOS (raw data) for species O to file atom_proj_dos_O0319_raw.dat.
  | writing   projected DOS (shifted by the chemical potential) for species O to file atom_proj_dos_O0320.dat.
  | writing   projected DOS (raw data) for species O to file atom_proj_dos_O0320_raw.dat.
  | writing   projected DOS (shifted by the chemical potential) for species O to file atom_proj_dos_O0321.dat.
  | writing   projected DOS (raw data) for species O to file atom_proj_dos_O0321_raw.dat.
  | writing   projected DOS (shifted by the chemical potential) for species O to file atom_proj_dos_O0322.dat.
  | writing   projected DOS (raw data) for species O to file atom_proj_dos_O0322_raw.dat.
  | writing   projected DOS (shifted by the chemical potential) for species O to file atom_proj_dos_O0323.dat.
  | writing   projected DOS (raw data) for species O to file atom_proj_dos_O0323_raw.dat.
  | writing   projected DOS (shifted by the chemical potential) for species O to file atom_proj_dos_O0324.dat.
  | writing   projected DOS (raw data) for species O to file atom_proj_dos_O0324_raw.dat.
  Mulliken analysis                                       :  max(cpu_time)    wall_clock(cpu1)
  | Time for Mulliken analysis                            :          7.978               8.407
  | Total time for Mulliken analysis                      :          7.978               8.407
------------------------------------------------------------

------------------------------------------------------------------------------
  Final output of selected total energy values:

  The following output summarizes some interesting total energy values
  at the end of a run (AFTER all relaxation, molecular dynamics, etc.).

  | Total energy of the DFT / Hartree-Fock s.c.f. calculation      :       -3460401.024082275 eV
  | Final zero-broadening corrected energy (caution - metals only) :       -3460401.024082275 eV
  | For reference only, the value of 1 Hartree used in FHI-aims is :             27.211384500 eV
  | For reference only, the overall average (free atom contribution
  | + realspace contribution) of the electrostatic potential after
  | s.c.f. convergence is                                          :            -15.901886311 eV

  Before relying on these values, please be sure to understand exactly which
  total energy value is referred to by a given number. Different objects may
  all carry the same name 'total energy'. Definitions:

  Total energy of the DFT / Hartree-Fock s.c.f. calculation:
  | Note that this energy does not include ANY quantities calculated after the
  | s.c.f. cycle, in particular not ANY RPA, MP2, etc. many-body perturbation terms.

  Final zero-broadening corrected energy:
  | For metallic systems only, a broadening of the occupation numbers at the Fermi
  | level can be extrapolated back to zero broadening by an electron-gas inspired
  | formula. For all systems that are not real metals, this value can be
  | meaningless and should be avoided.

------------------------------------------------------------------------------
  Methods described in the following list of references were used in this FHI-aims run.
  If you publish the results, please make sure to cite these reference if they apply.
  FHI-aims is an academic code, and for our developers (often, Ph.D. students
  and postdocs), scientific credit in the community is essential.
  Thank you for helping us!

  For any use of FHI-aims, please cite:

    Volker Blum, Ralf Gehrke, Felix Hanke, Paula Havu, Ville Havu,
    Xinguo Ren, Karsten Reuter, and Matthias Scheffler
    'Ab initio molecular simulations with numeric atom-centered orbitals'
    Computer Physics Communications 180, 2175-2196 (2009)
    http://doi.org/10.1016/j.cpc.2009.06.022


  The provided symmetry information was generated with SPGlib:

    Atsushi Togo, Yusuke Seto, Dimitar Pashov
    SPGlib 1.7.3 obtained from http://spglib.sourceforge.net
    Copyright (C) 2008 Atsushi Togo


 DFT+U infrastructure was used in your run
 please cite:

 Matthias Kick, Karsten Reuter and Harald Oberhofer,
 Intricacies Of DFT+U, not only in a Numeric Atom Centered Orbital Framework

 Journal of Chemical Theory and Computation
 https://


  The ELSI infrastructure was used in your run to solve the Kohn-Sham electronic structure.
  Please check out http://elsi-interchange.org to learn more.
  If scalability is important for your project, please acknowledge ELSI by citing:

    V. W-z. Yu, F. Corsetti, A. Garcia, W. P. Huhn, M. Jacquelin, W. Jia,
    B. Lange, L. Lin, J. Lu, W. Mi, A. Seifitokaldani, A. Vazquez-Mayagoitia,
    C. Yang, H. Yang, and V. Blum
    'ELSI: A unified software interface for Kohn-Sham electronic structure solvers'
    Computer Physics Communications 222, 267-285 (2018).
    http://doi.org/10.1016/j.cpc.2017.09.007


  For the real-space grid partitioning and parallelization used in this calculation, please cite:

    Ville Havu, Volker Blum, Paula Havu, and Matthias Scheffler,
    'Efficient O(N) integration for all-electron electronic structure calculation'
    'using numerically tabulated basis functions'
    Journal of Computational Physics 228, 8367-8379 (2009).
    http://doi.org/10.1016/j.jcp.2009.08.008

  Of course, there are many other important community references, e.g., those cited in the
  above references. Our list is limited to references that describe implementations in the
  FHI-aims code. The reason is purely practical (length of this list) - please credit others as well.

 * A warning was issued further up regarding the accuracy of onsite integrals.
   An integral with a negative eigenvalue was among the flagged integrals.
   In most standard situations, this warning is probably harmless.
   If needed, this can be verified by adjusting the radial_multiplier flag.

------------------------------------------------------------
          Leaving FHI-aims.
          Date     :  20240717, Time     :  043435.418

          Computational steps:
          | Number of self-consistency cycles          :           31
          | Number of SCF (re)initializations          :            1

          Detailed time accounting                     :  max(cpu_time)    wall_clock(cpu1)
          | Total time                                  :     1456.527 s        1461.177 s
          | Preparation time                            :        1.114 s           1.113 s
          | Boundary condition initalization            :        0.431 s           0.432 s
          | Grid partitioning                           :        1.001 s           1.003 s
          | Preloading free-atom quantities on grid     :        1.346 s           1.353 s
          | Free-atom superposition energy              :        0.426 s           0.427 s
          | Total time for integrations                 :       86.806 s          87.013 s
          | Total time for solution of K.-S. equations  :      843.775 s         838.226 s
          | Total time for density & force components   :      210.277 s         210.784 s
          | Total time for mixing & preconditioning     :      140.438 s         140.559 s
          | Total time for Hartree multipole update     :        0.780 s           0.803 s
          | Total time for Hartree multipole sum        :       28.014 s          28.083 s
          | Total time for total energy evaluation      :        0.278 s           0.165 s
          | Total time NSC force correction             :        5.126 s           5.489 s
          | Total time for scaled ZORA corrections      :        0.000 s           0.000 s
          | Total time for band structures, DOS         :        0.030 s           0.015 s
          | Total time for Mulliken analysis            :        8.388 s           8.407 s

          Partial memory accounting:
          | Residual value for overall tracked memory usage across tasks:     0.000000 MB (should be 0.000000 MB)
          | Peak values for overall tracked memory usage:
          |   Minimum:      533.745 MB (on task   9 after allocating temp_ham_ovlp)
          |   Maximum:      534.360 MB (on task   0 after allocating temp_ham_ovlp)
          |   Average:      534.185 MB
          | Largest tracked array allocation:
          |   Minimum:      104.460 MB (overlap_matrix on task   0)
          |   Maximum:      104.460 MB (overlap_matrix on task   0)
          |   Average:      104.460 MB
          Note:  These values currently only include a subset of arrays which are explicitly tracked.
          The "true" memory usage will be greater.

          Have a nice day.
------------------------------------------------------------
