------------------------------------------------------------
          Invoking FHI-aims ...

          When using FHI-aims, please cite the following reference:

            Volker Blum, Ralf Gehrke, Felix Hanke, Paula Havu,
            Ville Havu, Xinguo Ren, Karsten Reuter, and Matthias Scheffler,
            'Ab Initio Molecular Simulations with Numeric Atom-Centered Orbitals',
            Computer Physics Communications 180, 2175-2196 (2009)

          In addition, many other developments in FHI-aims are likely important for
          your particular application. If so, please cite them. A partial list of references
          is written at the end of this file. Thank you for giving credit to the authors
          of these developments.

          For general information about FHI-aims please find us at

            https://fhi-aims.org

          Online tutorials can be found at

            https://fhi-aims-club.gitlab.io/tutorials/tutorials-overview/

          For any questions about FHI-aims, please visit our slack channel at

            https://fhi-aims.slack.com

          and our main development and support site at

            https://aims-git.rz-berlin.mpg.de .

          The latter site, in particular, has a wiki to collect information, as well
          as an issue tracker to log discussions, suggest improvements, and report issues
          or bugs. https://aims-git.rz-berlin.mpg.de is also the main development site
          of the project and all new and updated code versions can be obtained there.
          Please send an email to aims-coordinators@fhi-berlin.mpg.de and we will add
          you to these sites. They are for you and everyone is welcome there.

------------------------------------------------------------



  Date     :  20240717, Time     :  152749.815
  Time zero on CPU 1             :   0.194762000000000E+00  s.
  Internal wall clock time zero  :           490462069.815  s.

  FHI-aims created a unique identifier for this run for later identification
  aims_uuid : 9D83A629-D0EC-4556-ADE2-A2DF3799BB2E

  Build configuration of the current instance of FHI-aims
  -------------------------------------------------------
  FHI-aims version      : 230612
  Commit number         : 0c86b0d53
  CMake host system     : Linux-3.10.0-1160.80.1.el7.x86_64
  CMake version         : 3.24.2
  Fortran compiler      : /apps/compilers/intel/2018.2/compilers_and_libraries_2018/linux/mpi/intel64/bin/mpif90 (Intel) version 18.0.2.20180210
  Fortran compiler flags: -O3 -ip -fp-model precise
  C compiler            : /apps/compilers/intel/2018.2/compilers_and_libraries_2018/linux/bin/intel64/icc (Intel) version 18.0.2.20180210
  C compiler flags      : -O3 -ip -fp-model precise -std=gnu99
  HIP compiler          :
  HIP compiler flags    :
  HIP GPU arch          :
  ELPA2 kernel          : AVX2
  Using MPI
  Using ScaLAPACK
  Using LibXC
  Using i-PI
  Using RLSY
  Linking against: /apps/compilers/intel/2018.2/compilers_and_libraries_2018/linux/mkl/lib/intel64/libmkl_intel_lp64.so
                   /apps/compilers/intel/2018.2/compilers_and_libraries_2018/linux/mkl/lib/intel64/libmkl_intel_thread.so
                   /apps/compilers/intel/2018.2/compilers_and_libraries_2018/linux/mkl/lib/intel64/libmkl_core.so
                   /apps/compilers/intel/2018.2/compilers_and_libraries_2018/linux/mkl/lib/intel64/libmkl_blacs_intelmpi_lp64.so
                   /apps/compilers/intel/2018.2/compilers_and_libraries_2018/linux/mkl/lib/intel64/libmkl_scalapack_lp64.so
                   /usr/lib64/libpthread.so

  Using      200 parallel tasks.
  Task        0 on host ccs0067 reporting.
  Task        1 on host ccs0067 reporting.
  Task        2 on host ccs0067 reporting.
  Task        3 on host ccs0067 reporting.
  Task        4 on host ccs0067 reporting.
  Task        5 on host ccs0067 reporting.
  Task        6 on host ccs0067 reporting.
  Task        7 on host ccs0067 reporting.
  Task        8 on host ccs0067 reporting.
  Task        9 on host ccs0067 reporting.
  Task       10 on host ccs0067 reporting.
  Task       11 on host ccs0067 reporting.
  Task       12 on host ccs0067 reporting.
  Task       13 on host ccs0067 reporting.
  Task       14 on host ccs0067 reporting.
  Task       15 on host ccs0067 reporting.
  Task       16 on host ccs0067 reporting.
  Task       17 on host ccs0067 reporting.
  Task       18 on host ccs0067 reporting.
  Task       19 on host ccs0067 reporting.
  Task       20 on host ccs0067 reporting.
  Task       21 on host ccs0067 reporting.
  Task       22 on host ccs0067 reporting.
  Task       23 on host ccs0067 reporting.
  Task       24 on host ccs0067 reporting.
  Task       25 on host ccs0067 reporting.
  Task       26 on host ccs0067 reporting.
  Task       27 on host ccs0067 reporting.
  Task       28 on host ccs0067 reporting.
  Task       29 on host ccs0067 reporting.
  Task       30 on host ccs0067 reporting.
  Task       31 on host ccs0067 reporting.
  Task       32 on host ccs0067 reporting.
  Task       33 on host ccs0067 reporting.
  Task       34 on host ccs0067 reporting.
  Task       35 on host ccs0067 reporting.
  Task       36 on host ccs0067 reporting.
  Task       37 on host ccs0067 reporting.
  Task       38 on host ccs0067 reporting.
  Task       39 on host ccs0067 reporting.
  Task       40 on host ccs0071 reporting.
  Task       41 on host ccs0071 reporting.
  Task       42 on host ccs0071 reporting.
  Task       43 on host ccs0071 reporting.
  Task       44 on host ccs0071 reporting.
  Task       45 on host ccs0071 reporting.
  Task       46 on host ccs0071 reporting.
  Task       47 on host ccs0071 reporting.
  Task       48 on host ccs0071 reporting.
  Task       49 on host ccs0071 reporting.
  Task       50 on host ccs0071 reporting.
  Task       51 on host ccs0071 reporting.
  Task       52 on host ccs0071 reporting.
  Task       53 on host ccs0071 reporting.
  Task       54 on host ccs0071 reporting.
  Task       55 on host ccs0071 reporting.
  Task       56 on host ccs0071 reporting.
  Task       57 on host ccs0071 reporting.
  Task       58 on host ccs0071 reporting.
  Task       59 on host ccs0071 reporting.
  Task       60 on host ccs0071 reporting.
  Task       61 on host ccs0071 reporting.
  Task       62 on host ccs0071 reporting.
  Task       63 on host ccs0071 reporting.
  Task       64 on host ccs0071 reporting.
  Task       65 on host ccs0071 reporting.
  Task       66 on host ccs0071 reporting.
  Task       67 on host ccs0071 reporting.
  Task       68 on host ccs0071 reporting.
  Task       69 on host ccs0071 reporting.
  Task       70 on host ccs0071 reporting.
  Task       71 on host ccs0071 reporting.
  Task       72 on host ccs0071 reporting.
  Task       73 on host ccs0071 reporting.
  Task       74 on host ccs0071 reporting.
  Task       75 on host ccs0071 reporting.
  Task       76 on host ccs0071 reporting.
  Task       77 on host ccs0071 reporting.
  Task       78 on host ccs0071 reporting.
  Task       79 on host ccs0071 reporting.
  Task       80 on host ccs0072 reporting.
  Task       81 on host ccs0072 reporting.
  Task       82 on host ccs0072 reporting.
  Task       83 on host ccs0072 reporting.
  Task       84 on host ccs0072 reporting.
  Task       85 on host ccs0072 reporting.
  Task       86 on host ccs0072 reporting.
  Task       87 on host ccs0072 reporting.
  Task       88 on host ccs0072 reporting.
  Task       89 on host ccs0072 reporting.
  Task       90 on host ccs0072 reporting.
  Task       91 on host ccs0072 reporting.
  Task       92 on host ccs0072 reporting.
  Task       93 on host ccs0072 reporting.
  Task       94 on host ccs0072 reporting.
  Task       95 on host ccs0072 reporting.
  Task       96 on host ccs0072 reporting.
  Task       97 on host ccs0072 reporting.
  Task       98 on host ccs0072 reporting.
  Task       99 on host ccs0072 reporting.
  Task      100 on host ccs0072 reporting.
  Task      101 on host ccs0072 reporting.
  Task      102 on host ccs0072 reporting.
  Task      103 on host ccs0072 reporting.
  Task      104 on host ccs0072 reporting.
  Task      105 on host ccs0072 reporting.
  Task      106 on host ccs0072 reporting.
  Task      107 on host ccs0072 reporting.
  Task      108 on host ccs0072 reporting.
  Task      109 on host ccs0072 reporting.
  Task      110 on host ccs0072 reporting.
  Task      111 on host ccs0072 reporting.
  Task      112 on host ccs0072 reporting.
  Task      113 on host ccs0072 reporting.
  Task      114 on host ccs0072 reporting.
  Task      115 on host ccs0072 reporting.
  Task      116 on host ccs0072 reporting.
  Task      117 on host ccs0072 reporting.
  Task      118 on host ccs0072 reporting.
  Task      119 on host ccs0072 reporting.
  Task      120 on host ccs0075 reporting.
  Task      121 on host ccs0075 reporting.
  Task      122 on host ccs0075 reporting.
  Task      123 on host ccs0075 reporting.
  Task      124 on host ccs0075 reporting.
  Task      125 on host ccs0075 reporting.
  Task      126 on host ccs0075 reporting.
  Task      127 on host ccs0075 reporting.
  Task      128 on host ccs0075 reporting.
  Task      129 on host ccs0075 reporting.
  Task      130 on host ccs0075 reporting.
  Task      131 on host ccs0075 reporting.
  Task      132 on host ccs0075 reporting.
  Task      133 on host ccs0075 reporting.
  Task      134 on host ccs0075 reporting.
  Task      135 on host ccs0075 reporting.
  Task      136 on host ccs0075 reporting.
  Task      137 on host ccs0075 reporting.
  Task      138 on host ccs0075 reporting.
  Task      139 on host ccs0075 reporting.
  Task      140 on host ccs0075 reporting.
  Task      141 on host ccs0075 reporting.
  Task      142 on host ccs0075 reporting.
  Task      143 on host ccs0075 reporting.
  Task      144 on host ccs0075 reporting.
  Task      145 on host ccs0075 reporting.
  Task      146 on host ccs0075 reporting.
  Task      147 on host ccs0075 reporting.
  Task      148 on host ccs0075 reporting.
  Task      149 on host ccs0075 reporting.
  Task      150 on host ccs0075 reporting.
  Task      151 on host ccs0075 reporting.
  Task      152 on host ccs0075 reporting.
  Task      153 on host ccs0075 reporting.
  Task      154 on host ccs0075 reporting.
  Task      155 on host ccs0075 reporting.
  Task      156 on host ccs0075 reporting.
  Task      157 on host ccs0075 reporting.
  Task      158 on host ccs0075 reporting.
  Task      159 on host ccs0075 reporting.
  Task      160 on host ccs0076 reporting.
  Task      161 on host ccs0076 reporting.
  Task      162 on host ccs0076 reporting.
  Task      163 on host ccs0076 reporting.
  Task      164 on host ccs0076 reporting.
  Task      165 on host ccs0076 reporting.
  Task      166 on host ccs0076 reporting.
  Task      167 on host ccs0076 reporting.
  Task      168 on host ccs0076 reporting.
  Task      169 on host ccs0076 reporting.
  Task      170 on host ccs0076 reporting.
  Task      171 on host ccs0076 reporting.
  Task      172 on host ccs0076 reporting.
  Task      173 on host ccs0076 reporting.
  Task      174 on host ccs0076 reporting.
  Task      175 on host ccs0076 reporting.
  Task      176 on host ccs0076 reporting.
  Task      177 on host ccs0076 reporting.
  Task      178 on host ccs0076 reporting.
  Task      179 on host ccs0076 reporting.
  Task      180 on host ccs0076 reporting.
  Task      181 on host ccs0076 reporting.
  Task      182 on host ccs0076 reporting.
  Task      183 on host ccs0076 reporting.
  Task      184 on host ccs0076 reporting.
  Task      185 on host ccs0076 reporting.
  Task      186 on host ccs0076 reporting.
  Task      187 on host ccs0076 reporting.
  Task      188 on host ccs0076 reporting.
  Task      189 on host ccs0076 reporting.
  Task      190 on host ccs0076 reporting.
  Task      191 on host ccs0076 reporting.
  Task      192 on host ccs0076 reporting.
  Task      193 on host ccs0076 reporting.
  Task      194 on host ccs0076 reporting.
  Task      195 on host ccs0076 reporting.
  Task      196 on host ccs0076 reporting.
  Task      197 on host ccs0076 reporting.
  Task      198 on host ccs0076 reporting.
  Task      199 on host ccs0076 reporting.

  Obtaining array dimensions for all initial allocations:
  
  -----------------------------------------------------------------------
  Parsing control.in (first pass over file, find array dimensions only).
  The contents of control.in will be repeated verbatim below
  unless switched off by setting 'verbatim_writeout .false.' .
  in the first line of control.in .
  -----------------------------------------------------------------------
  
  #===============================================================================
  # FHI-aims file: ./control.in
  # Created using the Atomic Simulation Environment (ASE)
  # Wed Jul 17 15:27:48 2024
  #===============================================================================
  spin                               none
  relativistic                       atomic_zora scalar
  compute_forces                     .true.
  override_warning_libxc             true
  xc                                 libxc MGGA_X_MBEEF+GGA_C_PBE_SOL
  k_grid                             2 2 3
  occupation_type                    gaussian 0.1
  plus_u_petukhov_mixing             1
  plus_u_use_hydros                  True
  plus_u_matrix_control              True
  plus_u_matrix_release              0.001
  output                             dos -18 0 200 0.1
  output                             atom_proj_dos -18 0 200 0.1
  sc_accuracy_etot                   1e-06
  sc_accuracy_eev                    0.001
  sc_accuracy_rho                    1e-06
  sc_accuracy_forces                 0.0001
  #===============================================================================
  
  ################################################################################
  #
  #  FHI-aims code project
  #  VB, Fritz-Haber Institut, 2009
  #
  #  Suggested "light" defaults for Ti atom (to be pasted into control.in file)
  #  Be sure to double-check any results obtained with these settings for post-processing,
  #  e.g., with the "tight" defaults and larger basis sets.
  #
  ################################################################################
    species        Ti
  #     global species definitions
      nucleus             22
      mass                47.867
  #
      l_hartree           4
  #
      cut_pot             3.5          1.5  1.0
      basis_dep_cutoff    1e-4
  #
      radial_base         48 5.0
      radial_multiplier   1
      angular_grids       specified
        division   0.5171   50
        division   0.9824  110
        division   1.2917  194
        division   1.4940  302
  #      division   1.6934  434
  #      division   1.8425  590
  #      division   2.1901  770
  #      division   2.2896  974
  #      division   2.8244 1202
  #      outer_grid  974
        outer_grid  302
  ################################################################################
  #
  #  Definition of "minimal" basis
  #
  ################################################################################
  #     valence basis states
      valence      4  s   2.
      valence      3  p   6.
      valence      3  d   2.
  #     ion occupancy
      ion_occ      4  s   1.
      ion_occ      3  p   6.
      ion_occ      3  d   1.
  ################################################################################
  #
  #  Suggested additional basis functions. For production calculations,
  #  uncomment them one after another (the most important basis functions are
  #  listed first).
  #
  #  Constructed for dimers: 1.6 A, 1.85 A, 2.5 A, 3.25 A, 4.25 A
  #
  ################################################################################
  #  "First tier" - improvements: -396.25 meV to -19.41 meV
       hydro 4 f 8
       hydro 3 d 2.7
       ionic 4 p auto
  #     hydro 5 g 11.6
       ionic 4 s auto
  #  "Second tier" - improvements: -16.30 meV to -2.03 meV
  #     hydro 3 d 4.4
  #     hydro 6 h 16
  #     hydro 4 f 9.4
  #     hydro 4 p 4.5
  #     hydro 1 s 0.5
  #  "Third tier" - improvements: -6.28 meV to -0.37 meV
  #     hydro 4 d 6.4
  #     hydro 4 f 10
  #     hydro 5 g 12
  #     hydro 2 p 1.7
  #     hydro 6 h 16.4
  #     hydro 4 s 3.8
  #  Further basis functions: -0.45 meV and smaller improvements
  #     hydro 3 d 8.8
  #     hydro 5 p 18
  #     hydro 4 f 22.4
  #     hydro 5 f 7.2  # -0.16 meV
  #     hydro 3 d 2.1  # -0.11 meV
  #     hydro 5 g 7.4  # -0.09 meV
  plus_u 3 d 2.575
  hubbard_coefficient 0.752 -0.486 0 0
  ################################################################################
  #
  #  FHI-aims code project
  #  VB, Fritz-Haber Institut, 2009
  #
  #  Suggested "light" defaults for O atom (to be pasted into control.in file)
  #  Be sure to double-check any results obtained with these settings for post-processing,
  #  e.g., with the "tight" defaults and larger basis sets.
  #
  ################################################################################
    species        O
  #     global species definitions
      nucleus             8
      mass                15.9994
  #
      l_hartree           4
  #
      cut_pot             3.5  1.5  1.0
      basis_dep_cutoff    1e-4
  #
      radial_base         36 5.0
      radial_multiplier   1
       angular_grids specified
        division   0.2659   50
        division   0.4451  110
        division   0.6052  194
        division   0.7543  302
  #      division   0.8014  434
  #      division   0.8507  590
  #      division   0.8762  770
  #      division   0.9023  974
  #      division   1.2339 1202
  #      outer_grid 974
        outer_grid 302
  ################################################################################
  #
  #  Definition of "minimal" basis
  #
  ################################################################################
  #     valence basis states
      valence      2  s   2.
      valence      2  p   4.
  #     ion occupancy
      ion_occ      2  s   1.
      ion_occ      2  p   3.
  ################################################################################
  #
  #  Suggested additional basis functions. For production calculations,
  #  uncomment them one after another (the most important basis functions are
  #  listed first).
  #
  #  Constructed for dimers: 1.0 A, 1.208 A, 1.5 A, 2.0 A, 3.0 A
  #
  ################################################################################
  #  "First tier" - improvements: -699.05 meV to -159.38 meV
       hydro 2 p 1.8
       hydro 3 d 7.6
       hydro 3 s 6.4
  #  "Second tier" - improvements: -49.91 meV to -5.39 meV
  #     hydro 4 f 11.6
  #     hydro 3 p 6.2
  #     hydro 3 d 5.6
  #     hydro 5 g 17.6
  #     hydro 1 s 0.75
  #  "Third tier" - improvements: -2.83 meV to -0.50 meV
  #     ionic 2 p auto
  #     hydro 4 f 10.8
  #     hydro 4 d 4.7
  #     hydro 2 s 6.8
  #  "Fourth tier" - improvements: -0.40 meV to -0.12 meV
  #     hydro 3 p 5
  #     hydro 3 s 3.3
  #     hydro 5 g 15.6
  #     hydro 4 f 17.6
  #     hydro 4 d 14
  # Further basis functions - -0.08 meV and below
  #     hydro 3 s 2.1
  #     hydro 4 d 11.6
  #     hydro 3 p 16
  #     hydro 2 s 17.2################################################################################
  #
  #  FHI-aims code project
  #  VB, Fritz-Haber Institut, 2009
  #
  #  Suggested "light" defaults for Pd atom (to be pasted into control.in file)
  #  Be sure to double-check any results obtained with these settings for post-processing,
  #  e.g., with the "tight" defaults and larger basis sets.
  #
  ################################################################################
    species        Pd
  #     global species definitions
      nucleus             46
      mass                106.42
  #
      l_hartree           4
  #
      cut_pot             3.5  1.5  1.0
      basis_dep_cutoff    1e-4
  #
      radial_base         62 5.0
      radial_multiplier   1
      angular_grids specified
        division   0.5211   50
        division   0.9161  110
        division   1.2296  194
        division   1.5678  302
  #      division   1.9785  434
  #      division   2.0474  590
  #      division   2.1195  770
  #      division   2.1568  974
  #      division   2.7392 1202
  #       outer_grid  974
         outer_grid  302
  ################################################################################
  #
  #  Definition of "minimal" basis
  #
  ################################################################################
  #     valence basis states
      valence      5  s   1.
      valence      4  p   6.
      valence      4  d   9.
  #     ion occupancy
      ion_occ     5  s   0.
      ion_occ     4  p   6.
      ion_occ     4  d   8.
  ################################################################################
  #
  #  Suggested additional basis functions. For production calculations,
  #  uncomment them one after another (the most important basis functions are
  #  listed first).
  #
  #  Constructed for dimers: 2.0 A, 2.275 A, 2.75 A, 3.75 A
  #
  ################################################################################
  #  "First tier" - max. impr. -120.76  meV, min. impr. -5.71 meV
       ionic 5 p auto
       hydro 4 f 8
  #     hydro 5 g 10
       hydro 3 s 2.6
       hydro 3 d 2.5
  #  "Second tier" - max. impr. -5.00  meV, min. impr. -0.62 meV
  #     hydro 5 f 17.2
  #     hydro 6 h 14
  #     hydro 4 d 4
  #     hydro 5 f 7.6
  #     hydro 3 p 3.3
  #     hydro 4 s 9.4
  #  "Third tier" - max. impr. -0.54  meV, min. impr. -0.14 meV
  #     hydro 4 f 20
  #     hydro 5 g 12.8
  #     hydro 5 d 9.8
  #     hydro 6 h 15.2
  #     hydro 5 s 10
  #     hydro 6 p 9.8
  #  "Fourth tier" - max. impr. -0.15  meV, min. impr. -0.05 meV
  #     hydro 5 f 9.2
  #     hydro 2 s 5.6
  #     hydro 5 f 43.2
  #     hydro 5 d 13.2
  #     hydro 5 g 14
  #     hydro 4 p 4.7
  plus_u 4 d 0
  hubbard_coefficient 1 0 0 0
  
  -----------------------------------------------------------------------
  Completed first pass over input file control.in .
  -----------------------------------------------------------------------
  
  
  -----------------------------------------------------------------------
  Parsing geometry.in (first pass over file, find array dimensions only).
  The contents of geometry.in will be repeated verbatim below
  unless switched off by setting 'verbatim_writeout .false.' .
  in the first line of geometry.in .
  -----------------------------------------------------------------------
  
  #=======================================================
  # FHI-aims file: ./geometry.in
  # Created using the Atomic Simulation Environment (ASE)
  # Wed Jul 17 15:27:48 2024
  #=======================================================
  lattice_vector 13.7870999999999988 0.0000000000000000 0.0000000000000000
  lattice_vector 0.0000000000000000 13.7870999999999988 0.0000000000000000
  lattice_vector 0.0000000000000000 0.0000000000000000 8.8766999999999996
  atom_frac 0.1676480106929416 0.1676442558202657 0.1643852613229158 Ti
  atom_frac 0.0000009441977314 -0.0000010108631955 -0.0000000078956964 Ti
  atom_frac 0.0646885274407683 0.2685298574486533 0.1667307213091016 O
  atom_frac 0.2685272644584166 0.0646854730376323 0.1667306637224541 O
  atom_frac 0.1018643711314971 0.1018663890846264 0.0000000386986530 O
  atom_frac 0.2309324850643400 0.2309290858113264 -0.0000000650103894 O
  atom_frac 0.1638212953673361 0.1638319272898074 0.5000002204165775 Ti
  atom_frac 0.0000001430116208 0.0000008131498999 0.3284521630948395 Ti
  atom_frac 0.0647123396681493 0.2679132082001055 0.5000000280547793 O
  atom_frac 0.2679113073000674 0.0647086713892655 0.4999999521883516 O
  atom_frac 0.1014970348923772 0.1014993649121748 0.3335979362028847 O
  atom_frac 0.2309081257861278 0.2309051050149818 0.3331182254027182 O
  atom_frac 0.1676466390128375 0.1676433475573672 0.8356150736612413 Ti
  atom_frac -0.0000018945012857 0.0000010176267081 0.6715478047014088 Ti
  atom_frac 0.0646884698780806 0.2685297878096831 0.8332692963704051 O
  atom_frac 0.2685271707293412 0.0646853505306642 0.8332693243858208 O
  atom_frac 0.1014970035456501 0.1014993783322503 0.6664021187480640 O
  atom_frac 0.2309080824375364 0.2309050419180439 0.6668818190230116 O
  atom_frac 0.1704054930561727 0.4993057127249461 0.1690952963778859 Ti
  atom_frac 0.0008558973388714 0.3406011889732501 0.0000001403513235 Ti
  atom_frac 0.0646265973077692 0.6022673075701459 0.1671457982754135 O
  atom_frac 0.2683433266716485 0.3980277859031402 0.1659228188516255 O
  atom_frac 0.1013373064437590 0.4358287402573306 0.0000000043839904 O
  atom_frac 0.2316262929287456 0.5648453788074543 -0.0000000539835528 O
  atom_frac 0.1593490577034731 0.5017683083228478 0.4999998997980589 Ti
  atom_frac -0.0001107944317646 0.3297296924023820 0.3306332905912331 Ti
  atom_frac 0.0640921656046314 0.6015450192450419 0.4999999625917945 O
  atom_frac 0.2687497286882679 0.3971761561110664 0.4999999900106278 O
  atom_frac 0.1022292192577522 0.4351130686031321 0.3331084747554721 O
  atom_frac 0.2310817652852919 0.5646988832801842 0.3329769799121338 O
  atom_frac 0.1704054973419569 0.4993059506328733 0.8309048211682373 Ti
  atom_frac -0.0001105687193220 0.3297300276971186 0.6693665530615258 Ti
  atom_frac 0.0646265787140633 0.6022672338565771 0.8328541932235438 O
  atom_frac 0.2683433491748103 0.3980278321662956 0.8340771078267590 O
  atom_frac 0.1022292024086239 0.4351129905597245 0.6668914414407863 O
  atom_frac 0.2310816529928340 0.5646989521754909 0.6670229963519874 O
  atom_frac 0.1686809594211092 0.8313192927852044 0.1628441005688408 Ti
  atom_frac -0.0008555147567260 0.6593988570647148 0.0000001059593742 Ti
  atom_frac 0.0645933608436543 0.9354091208020602 0.1669287196396265 O
  atom_frac 0.2687396274407013 0.7312573612879981 0.1670849896381917 O
  atom_frac 0.1027697716065532 0.7687361992179355 -0.0000000187567418 O
  atom_frac 0.2312666005325432 0.8972272819756201 -0.0000000393614318 O
  atom_frac 0.1626394382503888 0.8373527322983326 0.5000001854239099 Ti
  atom_frac 0.0001109522191189 0.6702704819659588 0.3306335103403727 Ti
  atom_frac 0.0650507992195670 0.9349507432933402 0.4999999411320133 O
  atom_frac 0.2700165149004900 0.7299801387327658 0.4999999027982340 O
  atom_frac 0.1019651871481875 0.7684537858363318 0.3339637656571701 O
  atom_frac 0.2315483923504049 0.8980319366655448 0.3339634119652477 O
  atom_frac 0.1686790826479664 0.8313197851640900 0.8371562111975102 Ti
  atom_frac 0.0001104631617249 0.6702698426329400 0.6693663482212641 Ti
  atom_frac 0.0645933533566534 0.9354090367869754 0.8330712687024918 O
  atom_frac 0.2687395509171668 0.7312573380911085 0.8329149914353308 O
  atom_frac 0.1019651791520356 0.7684537484460598 0.6660361693535489 O
  atom_frac 0.2315483869670059 0.8980319048592196 0.6660364705682833 O
  atom_frac 0.4993048421524978 0.1703977201071353 0.1691030215342177 Ti
  atom_frac 0.3406038621930849 0.0008524429241155 -0.0000001388367248 Ti
  atom_frac 0.3980306768385024 0.2683451860947735 0.1659224010838990 O
  atom_frac 0.6022640509848970 0.0646244323706185 0.1671453794697644 O
  atom_frac 0.4358263319898866 0.1013391381800729 -0.0000000108623552 O
  atom_frac 0.5648490280247110 0.2316242821324072 -0.0000000091287001 O
  atom_frac 0.5017701512618536 0.1593522901938868 0.5000000154325781 Ti
  atom_frac 0.3297216845618531 -0.0001132594938724 0.3306405185449891 Ti
  atom_frac 0.3971791868704440 0.2687524771670577 0.5000000341360641 O
  atom_frac 0.6015430665178499 0.0640895165201866 0.4999999833184558 O
  atom_frac 0.4351112067752415 0.1022324436779976 0.3331079573723950 O
  atom_frac 0.5647018681224957 0.2310791691114829 0.3329769546734064 O
  atom_frac 0.4993044398042130 0.1703973961590579 0.8308969898392375 Ti
  atom_frac 0.3297212742091530 -0.0001135969979308 0.6693596657747288 Ti
  atom_frac 0.3980306006063761 0.2683451590528354 0.8340775617834322 O
  atom_frac 0.6022640879455025 0.0646244786879313 0.8328546397830031 O
  atom_frac 0.4351111698512218 0.1022325120697552 0.6668920480729577 O
  atom_frac 0.5647018389515460 0.2310791756386116 0.6670230991161719 O
  atom_frac 0.5000003761832500 0.5000003494604021 0.1708071381773053 Ti
  atom_frac 0.3370648934374278 0.3370595189353436 0.0000002101642518 Ti
  atom_frac 0.3980625356446352 0.6019399007187854 0.1657236943281054 O
  atom_frac 0.6019376116755714 0.3980599846373961 0.1657238570396026 O
  atom_frac 0.4349647388492425 0.4349665922867021 -0.0000000581171838 O
  atom_frac 0.5650353660177411 0.5650332629297836 0.0000000743771675 O
  atom_frac 0.5000000021951132 0.4999999613098990 0.4999999909203225 Pd
  atom_frac 0.3308068172366648 0.3308068154992894 0.3380893020113079 Ti
  atom_frac 0.3982329339292581 0.6017689358493644 0.4999999895393867 O
  atom_frac 0.6017671081995883 0.3982309307824038 0.5000000049266782 O
  atom_frac 0.4341147266908886 0.4341171081440405 0.3283566230510138 O
  atom_frac 0.5658853521218604 0.5658828550854201 0.3283567156713382 O
  atom_frac 0.4999989946623946 0.5000002940207755 0.8291927578867122 Ti
  atom_frac 0.3308059147739454 0.3308061366237424 0.6619113955468220 Ti
  atom_frac 0.3980624760046620 0.6019398917053675 0.8342763175894345 O
  atom_frac 0.6019375387179390 0.3980599998762033 0.8342761273816047 O
  atom_frac 0.4341147052766933 0.4341170497162976 0.6716432392294980 O
  atom_frac 0.5658853474760916 0.5658827881769316 0.6716433550152060 O
  atom_frac 0.5006951632388493 0.8296024070856192 0.1691030645980876 Ti
  atom_frac 0.3359041137530888 0.6641100579039388 -0.0000001891011580 Ti
  atom_frac 0.3977359911070580 0.9353753898010454 0.1671453249277867 O
  atom_frac 0.6019694031857815 0.7316547024943285 0.1659223667076537 O
  atom_frac 0.4351509780467698 0.7683756437559452 -0.0000000269680176 O
  atom_frac 0.5641737740879619 0.8986607203748741 0.0000000683748552 O
  atom_frac 0.4982299943035965 0.8406476783281832 0.5000001479070437 Ti
  atom_frac 0.3323335819311136 0.6676639930798318 0.3342587099214080 Ti
  atom_frac 0.3984569990382220 0.9359103630632154 0.4999999268214723 O
  atom_frac 0.6028209100480172 0.7312474509544561 0.5000000046734788 O
  atom_frac 0.4352982143555724 0.7689207297391728 0.3329768883967425 O
  atom_frac 0.5648889099288349 0.8977673932943795 0.3331078807119264 O
  atom_frac 0.5006955104854410 0.8296023567310942 0.8308967748190775 Ti
  atom_frac 0.3323323465818809 0.6676651599537933 0.6657415209073305 Ti
  atom_frac 0.3977360076499871 0.9353754482164204 0.8328546323407189 O
  atom_frac 0.6019693875765828 0.7316546978587490 0.8340776667575323 O
  atom_frac 0.4352982043523842 0.7689207903200268 0.6670230932250494 O
  atom_frac 0.5648888609625943 0.8977673945113066 0.6668920738912880 O
  atom_frac 0.8313204216089154 0.1686795323229975 0.1628434756811754 Ti
  atom_frac 0.6593961776542204 -0.0008527992896553 -0.0000001199657981 Ti
  atom_frac 0.7312604634012829 0.2687426066952453 0.1670850509677287 O
  atom_frac 0.9354064795645313 0.0645909943296795 0.1669285923381106 O
  atom_frac 0.7687333727653709 0.1027727519882236 -0.0000000058010184 O
  atom_frac 0.8972302101430735 0.2312637841960787 0.0000000858447266 O
  atom_frac 0.8373586266817633 0.1626492941898761 0.4999998746471807 Ti
  atom_frac 0.6702782875762751 0.0001133854207863 0.3306402815524659 Ti
  atom_frac 0.7299837050694387 0.2700195565201892 0.5000001198109980 O
  atom_frac 0.9349489258763768 0.0650495038973172 0.5000001046130916 O
  atom_frac 0.7684515375013611 0.1019681050684942 0.3339635789580572 O
  atom_frac 0.8980348243196649 0.2315462439439133 0.3339639097114262 O
  atom_frac 0.8313197314002515 0.1686812224690601 0.8371562353591655 Ti
  atom_frac 0.6702787852165603 0.0001136321695378 0.6693597734956693 Ti
  atom_frac 0.7312604203635297 0.2687426202016981 0.8329149020920096 O
  atom_frac 0.9354065690090605 0.0645910067639778 0.8330715053595243 O
  atom_frac 0.7684515955281834 0.1019680709345162 0.6660364884414848 O
  atom_frac 0.8980348211905301 0.2315462820226851 0.6660361435400379 O
  atom_frac 0.8295948316239469 0.5006946208772765 0.1690952752441484 Ti
  atom_frac 0.6640959713064516 0.3358900847255774 0.0000001982027514 Ti
  atom_frac 0.7316568014701481 0.6019721677529770 0.1659228977901499 O
  atom_frac 0.9353735592650350 0.3977326554497749 0.1671458760441061 O
  atom_frac 0.7683737998751740 0.4351545878280731 0.0000000026348753 O
  atom_frac 0.8986628301938687 0.5641711550024731 0.0000000438182475 O
  atom_frac 0.8406509280040579 0.4982314465559116 0.4999999569858308 Ti
  atom_frac 0.6676674478223861 0.3323353597057061 0.3342577366296937 Ti
  atom_frac 0.7312502547832074 0.6028236877778546 0.4999999499241944 O
  atom_frac 0.9359079525215613 0.3984548875830755 0.5000000166953336 O
  atom_frac 0.7689183971039961 0.4353009868968427 0.3329770682218693 O
  atom_frac 0.8977708672063133 0.5648868913446031 0.3331086046727371 O
  atom_frac 0.8295944836158572 0.5006939760801190 0.8309048855032073 Ti
  atom_frac 0.6676658649443691 0.3323362064532759 0.6657420229955975 Ti
  atom_frac 0.7316567718335438 0.6019721147572998 0.8340771210337773 O
  atom_frac 0.9353735240251513 0.3977326489520087 0.8328541790390288 O
  atom_frac 0.7689183213591232 0.4353010200295047 0.6670230114007040 O
  atom_frac 0.8977708873887295 0.5648869209594194 0.6668914462149687 O
  atom_frac 0.8323532568719179 0.8323566343016968 0.1643850075107660 Ti
  atom_frac 0.6629350968917440 0.6629405304466308 -0.0000001803961162 Ti
  atom_frac 0.7314729019247673 0.9353145582612303 0.1667306786037795 O
  atom_frac 0.9353115846862261 0.7314701091820418 0.1667306974325412 O
  atom_frac 0.7690675721207307 0.7690708525821689 0.0000000320894380 O
  atom_frac 0.8981358499856710 0.8981333826861981 -0.0000000548219502 O
  atom_frac 0.8361784759742167 0.8361683667880619 0.4999997498049741 Ti
  atom_frac 0.6691939221742815 0.6691939131543123 0.3380886859756673 Ti
  atom_frac 0.7320886996563802 0.9352911898112548 0.5000000139885875 O
  atom_frac 0.9352878302044404 0.7320867734419017 0.4999999939849681 O
  atom_frac 0.7690919889837587 0.7690948596201401 0.3331181901552316 O
  atom_frac 0.8985029028085663 0.8985006688276036 0.3335979038273661 O
  atom_frac 0.8323524084829442 0.8323554015556486 0.8356147296128594 Ti
  atom_frac 0.6691935682100045 0.6691929253562667 0.6619107529988906 Ti
  atom_frac 0.7314727970769140 0.9353144771090692 0.8332693589829394 O
  atom_frac 0.9353115497087008 0.7314700619230582 0.8332691710074096 O
  atom_frac 0.7690919559446939 0.7690947746116342 0.6668818059948781 O
  atom_frac 0.8985028384330014 0.8985007096786256 0.6664020749229480 O
  
  -----------------------------------------------------------------------
  Completed first pass over input file geometry.in .
  -----------------------------------------------------------------------
  

  Basic array size parameters:
  | Number of species                 :        3
  | Number of atoms                   :      162
  | Number of lattice vectors         :        3
  | Max. basis fn. angular momentum   :        3
  | Max. atomic/ionic basis occupied n:        5
  | Max. number of basis fn. types    :        3
  | Max. radial fns per species/type  :       10
  | Max. logarithmic grid size        :     1444
  | Max. radial integration grid size :       62
  | Max. angular integration grid size:      302
  | Max. angular grid division number :        8
  | Radial grid for Hartree potential :     1444
  | Number of spin channels           :        1
  | Max. number of (n,l) shells per species with '+U' treatment:        1

------------------------------------------------------------
          Reading file control.in.
------------------------------------------------------------
  Spin treatment: No spin polarisation.
  Scalar relativistic treatment of kinetic energy: on-site free-atom approximation to ZORA.
  Forces will be computed.
  XC: Using LibXC. Please refer to LibXC output for further details.
  Using libxc - Initializing
  Libxc version: 6.1.0


  ** PLEASE ** be careful using LibXC. Whilst most of the LDA, GGA and MGGA functionals,
  and hybrid variations therein, should be stable (though we always recommend testing!),
  there are several fancy functionals with e.g. range-separation, like HSE03/HSE06/LC-PBEh,
  and also MGGA functionals that depend on the laplacian of the density, like BR89,
  that are not fully implemented due to the infrastrucutre for these functionals being incomplete or non-generic.
  If you want to use these functionals please contact the development team and we will work on them with you!

  You have selected libxc functional MGGA_X_MBEEF (249)
    - Description: mBEEF exchange
    - Type: MGGA(Exchange)
    - Reference to Literature:
      [1] J. Wellendorff, K. T. Lundgaard, K. W. Jacobsen, and T. Bligaard.,  J. Chem. Phys. 140, 144107 (2014)

  You have selected libxc functional GGA_C_PBE_SOL (133)
    - Description: Perdew, Burke & Ernzerhof SOL
    - Type: GGA(Correlation)
    - Reference to Literature:
      [1] J. P. Perdew, A. Ruzsinszky, G. I. Csonka, O. A. Vydrov, G. E. Scuseria, L. A. Constantin, X. Zhou, and K. Burke.,  Phys. Rev. Lett. 100, 136406 (2008)

  Switching on meta-ggas
  Found k-point grid:         2         2         3
  Occupation type: Gaussian broadening, width =   0.100000E+00 eV.
  Fixing petukhov mixing factor to   1.000000000000
  hydrogenic basis funktions also used for DFT+U reference states
  Reading DFT+U occupation matrix, from file
  Reading DFT+U occupation matrix, from file
  DFT+U occupation matrix, is again calculated if total energy is converged within   0.001000000000
  Calculating density of states with
  | energy interval :-18.000000  0.000000
  | points & broadening :   200  0.100000
  Calculating atom-projected density of states with
  | energy interval :-18.000000  0.000000
  | points & broadening :   200  0.100000
  Convergence accuracy of total energy:  0.1000E-05
  Convergence accuracy of sum of eigenvalues:  0.1000E-02
  Convergence accuracy of self-consistent charge density:  0.1000E-05
  Convergence accuracy of forces:  0.1000E-03
 
  Reading configuration options for species Ti                  .
  | Found nuclear charge :  22.0000
  | Found atomic mass :    47.8670000000000      amu
  | Found l_max for Hartree potential  :   4
  | Found cutoff potl. onset [A], width [A], scale factor :    3.50000    1.50000    1.00000
  | Threshold for basis-dependent cutoff potential is   0.100000E-03
  | Found data for basic radial integration grid :    48 points, outermost radius =    5.000 A
  | Found multiplier for basic radial grid :   1
  | Found angular grid specification: user-specified.
  | Specified grid contains     5 separate shells.
  | Check grid settings after all constraints further below.
  | Found free-atom valence shell :  4 s   2.000
  | Found free-atom valence shell :  3 p   6.000
  | Found free-atom valence shell :  3 d   2.000
  | Found free-ion valence shell :  4 s   1.000
  | Found free-ion valence shell :  3 p   6.000
  | Found free-ion valence shell :  3 d   1.000
  | Found hydrogenic basis function :  4 f   8.000
  | Found hydrogenic basis function :  3 d   2.700
  | Found ionic basis function :  4 p , default cutoff radius.
  | Found ionic basis function :  4 s , default cutoff radius.
  | Found request for '+U' treatment for  3 d shell, U =     2.575000 eV.
  | Found coefficents for linear combination of hubbard projectors 
  Species Ti                  : Missing cutoff potential type.
  Defaulting to exp(1/x)/(1-x)^2 type cutoff potential.
  Species Ti: No 'logarithmic' tag. Using default grid for free atom:
  | Default logarithmic grid data [bohr] : 0.1000E-03 0.1000E+03 0.1012E+01
  | Will include ionic basis functions of  2.0-fold positive Ti                   ion.
  Species Ti: On-site basis accuracy parameter (for Gram-Schmidt orthonormalisation) not specified.
  Using default value basis_acc =  0.1000000E-03.
  Species Ti                  : Using default innermost maximum threshold i_radial=  2 for radial functions.
  Species Ti                  : Default cutoff onset for free atom density etc. : 0.35000000E+01 AA.
  Species Ti                  : Basic radial grid will be enhanced according to radial_multiplier =   1, to contain    48 grid points.
 
  Reading configuration options for species O                   .
  | Found nuclear charge :   8.0000
  | Found atomic mass :    15.9994000000000      amu
  | Found l_max for Hartree potential  :   4
  | Found cutoff potl. onset [A], width [A], scale factor :    3.50000    1.50000    1.00000
  | Threshold for basis-dependent cutoff potential is   0.100000E-03
  | Found data for basic radial integration grid :    36 points, outermost radius =    5.000 A
  | Found multiplier for basic radial grid :   1
  | Found angular grid specification: user-specified.
  | Specified grid contains     5 separate shells.
  | Check grid settings after all constraints further below.
  | Found free-atom valence shell :  2 s   2.000
  | Found free-atom valence shell :  2 p   4.000
  | Found free-ion valence shell :  2 s   1.000
  | Found free-ion valence shell :  2 p   3.000
  | Found hydrogenic basis function :  2 p   1.800
  | Found hydrogenic basis function :  3 d   7.600
  | Found hydrogenic basis function :  3 s   6.400
  Species O                   : Missing cutoff potential type.
  Defaulting to exp(1/x)/(1-x)^2 type cutoff potential.
  Species O : No 'logarithmic' tag. Using default grid for free atom:
  | Default logarithmic grid data [bohr] : 0.1000E-03 0.1000E+03 0.1012E+01
  Species O : On-site basis accuracy parameter (for Gram-Schmidt orthonormalisation) not specified.
  Using default value basis_acc =  0.1000000E-03.
  Species O                   : Using default innermost maximum threshold i_radial=  2 for radial functions.
  Species O                   : Default cutoff onset for free atom density etc. : 0.35000000E+01 AA.
  Species O                   : Basic radial grid will be enhanced according to radial_multiplier =   1, to contain    36 grid points.
 
  Reading configuration options for species Pd                  .
  | Found nuclear charge :  46.0000
  | Found atomic mass :    106.420000000000      amu
  | Found l_max for Hartree potential  :   4
  | Found cutoff potl. onset [A], width [A], scale factor :    3.50000    1.50000    1.00000
  | Threshold for basis-dependent cutoff potential is   0.100000E-03
  | Found data for basic radial integration grid :    62 points, outermost radius =    5.000 A
  | Found multiplier for basic radial grid :   1
  | Found angular grid specification: user-specified.
  | Specified grid contains     5 separate shells.
  | Check grid settings after all constraints further below.
  | Found free-atom valence shell :  5 s   1.000
  | Found free-atom valence shell :  4 p   6.000
  | Found free-atom valence shell :  4 d   9.000
  | Found free-ion valence shell :  5 s   0.000
  | Found free-ion valence shell :  4 p   6.000
  | Found free-ion valence shell :  4 d   8.000
  | Found ionic basis function :  5 p , default cutoff radius.
  | Found hydrogenic basis function :  4 f   8.000
  | Found hydrogenic basis function :  3 s   2.600
  | Found hydrogenic basis function :  3 d   2.500
  | Found request for '+U' treatment for  4 d shell, U =     0.000000 eV.
  | Found coefficents for linear combination of hubbard projectors 
  Species Pd                  : Missing cutoff potential type.
  Defaulting to exp(1/x)/(1-x)^2 type cutoff potential.
  Species Pd: No 'logarithmic' tag. Using default grid for free atom:
  | Default logarithmic grid data [bohr] : 0.1000E-03 0.1000E+03 0.1012E+01
  | Will include ionic basis functions of  2.0-fold positive Pd                   ion.
  Species Pd: On-site basis accuracy parameter (for Gram-Schmidt orthonormalisation) not specified.
  Using default value basis_acc =  0.1000000E-03.
  Species Pd                  : Using default innermost maximum threshold i_radial=  2 for radial functions.
  Species Pd                  : Default cutoff onset for free atom density etc. : 0.35000000E+01 AA.
  Species Pd                  : Basic radial grid will be enhanced according to radial_multiplier =   1, to contain    62 grid points.
 
  Finished reading input file 'control.in'.
 
------------------------------------------------------------


------------------------------------------------------------
          Reading geometry description geometry.in.
------------------------------------------------------------
  | The smallest distance between any two atoms is         1.89895837 AA.
  | The first atom of this pair is atom number                     85 .
  | The second atom of this pair is atom number                    89 .
  | Wigner-Seitz cell of the first atom image           0     1     0 .
  | (The Wigner-Seitz cell of the second atom is 0 0 0  by definition.)

  Symmetry information by spglib:
  | Precision set to  0.1E-04
  | Number of Operations  : 1
  | Space group           : 1
  | International         : P1      Sei
  | Schoenflies           : C1^1
  Input structure read successfully.
  The structure contains      162 atoms,  and a total of       2076.000 electrons.

  Input geometry:
  | Unit cell:
  |       13.78710000        0.00000000        0.00000000
  |        0.00000000       13.78710000        0.00000000
  |        0.00000000        0.00000000        8.87670000
  | Atomic structure:
  |       Atom                x [A]            y [A]            z [A]
  |    1: Species Ti            2.31137989        2.31132812        1.45919865
  |    2: Species Ti            0.00001302       -0.00001394       -0.00000007
  |    3: Species O             0.89186720        3.70224800        1.48001859
  |    4: Species O             3.70221225        0.89182509        1.48001808
  |    5: Species O             1.40441427        1.40444209        0.00000034
  |    6: Species O             3.18388926        3.18384240       -0.00000058
  |    7: Species Ti            2.25862058        2.25876716        4.43835196
  |    8: Species Ti            0.00000197        0.00001121        2.91557132
  |    9: Species O             0.89219550        3.69374619        4.43835025
  |   10: Species O             3.69371998        0.89214492        4.43834958
  |   11: Species O             1.39934977        1.39938189        2.96124880
  |   12: Species O             3.18355342        3.18351177        2.95699055
  |   13: Species Ti            2.31136098        2.31131560        7.41750432
  |   14: Species Ti           -0.00002612        0.00001403        5.96112840
  |   15: Species O             0.89186640        3.70224704        7.39668156
  |   16: Species O             3.70221096        0.89182340        7.39668181
  |   17: Species O             1.39934934        1.39938208        5.91545169
  |   18: Species O             3.18355282        3.18351090        5.91970984
  |   19: Species Ti            2.34939757        6.88397779        1.50100822
  |   20: Species Ti            0.01180034        4.69590265        0.00000125
  |   21: Species O             0.89101336        8.30351960        1.48370311
  |   22: Species O             3.69967628        5.48764889        1.47284709
  |   23: Species O             1.39714758        6.00881442        0.00000004
  |   24: Species O             3.19345486        7.78757972       -0.00000048
  |   25: Species Ti            2.19696139        6.91792984        4.43834911
  |   26: Species Ti           -0.00152753        4.54601624        2.93493253
  |   27: Species O             0.88364510        8.29356133        4.43834967
  |   28: Species O             3.70527938        5.47590738        4.43834991
  |   29: Species O             1.40944447        5.99894739        2.95690400
  |   30: Species O             3.18594741        7.78555997        2.95573676
  |   31: Species Ti            2.34939763        6.88398107        7.37569283
  |   32: Species Ti           -0.00152442        4.54602086        5.94176608
  |   33: Species O             0.89101310        8.30351858        7.39299682
  |   34: Species O             3.69967659        5.48764952        7.40385226
  |   35: Species O             1.40944424        5.99894631        5.91979526
  |   36: Species O             3.18594586        7.78556092        5.92096303
  |   37: Species Ti            2.32562126       11.46148222        1.44551823
  |   38: Species Ti           -0.01179507        9.09119798        0.00000094
  |   39: Species O             0.89055513       12.89657909        1.48177617
  |   40: Species O             3.70514012       10.08191837        1.48316333
  |   41: Species O             1.41689712       10.59864285       -0.00000017
  |   42: Species O             3.18849575       12.37016226       -0.00000035
  |   43: Species Ti            2.24232620       11.54466586        4.43835165
  |   44: Species Ti            0.00152971        9.24108616        2.93493448
  |   45: Species O             0.89686187       12.89025939        4.43834948
  |   46: Species O             3.72274469       10.06430917        4.43834914
  |   47: Species O             1.40580423       10.59474919        2.96449616
  |   48: Species O             3.19238084       12.38125611        2.96449302
  |   49: Species Ti            2.32559538       11.46148901        7.43118454
  |   50: Species Ti            0.00152297        9.24107735        5.94176426
  |   51: Species O             0.89055502       12.89657793        7.39492373
  |   52: Species O             3.70513906       10.08191805        7.39353650
  |   53: Species O             1.40580412       10.59474868        5.91220326
  |   54: Species O             3.19238077       12.38125568        5.91220594
  |   55: Species Ti            6.88396579        2.34929041        1.50107679
  |   56: Species Ti            4.69593951        0.01175272       -0.00000123
  |   57: Species O             5.48768874        3.69970192        1.47284338
  |   58: Species O             8.30347470        0.89098351        1.48369939
  |   59: Species O             6.00878122        1.39717283       -0.00000010
  |   60: Species O             7.78763003        3.19342714       -0.00000008
  |   61: Species Ti            6.91795525        2.19700596        4.43835014
  |   62: Species Ti            4.54590584       -0.00156152        2.93499669
  |   63: Species O             5.47594917        3.70531728        4.43835030
  |   64: Species O             8.29353441        0.88360857        4.43834985
  |   65: Species O             5.99892172        1.40948892        2.95689941
  |   66: Species O             7.78560113        3.18591161        2.95573653
  |   67: Species Ti            6.88396024        2.34928594        7.37562331
  |   68: Species Ti            4.54590018       -0.00156617        5.94170495
  |   69: Species O             5.48768769        3.69970154        7.40385629
  |   70: Species O             8.30347521        0.89098415        7.39300078
  |   71: Species O             5.99892121        1.40948987        5.91980064
  |   72: Species O             7.78560072        3.18591170        5.92096394
  |   73: Species Ti            6.89355519        6.89355482        1.51620372
  |   74: Species Ti            4.64714739        4.64707329        0.00000187
  |   75: Species O             5.48812799        8.29900561        1.47107952
  |   76: Species O             8.29897405        5.48809281        1.47108096
  |   77: Species O             5.99690235        5.99692790       -0.00000052
  |   78: Species O             7.79019909        7.79017010        0.00000066
  |   79: Species Pd            6.89355003        6.89354947        4.43834992
  |   80: Species Ti            4.56086667        4.56086665        3.00111731
  |   81: Species O             5.49047728        8.29664850        4.43834991
  |   82: Species O             8.29662330        5.49044967        4.43835004
  |   83: Species O             5.98518315        5.98521598        2.91472324
  |   84: Species O             7.80191794        7.80188351        2.91472406
  |   85: Species Ti            6.89353614        6.89355405        7.36049535
  |   86: Species Ti            4.56085423        4.56085729        5.87558888
  |   87: Species O             5.48812716        8.29900548        7.40562059
  |   88: Species O             8.29897304        5.48809302        7.40561890
  |   89: Species O             5.98518285        5.98521518        5.96197554
  |   90: Species O             7.80191787        7.80188259        5.96197657
  |   91: Species Ti            6.90313429       11.43781135        1.50107717
  |   92: Species Ti            4.63114361        9.15615178       -0.00000168
  |   93: Species O             5.48362588       12.89611404        1.48369891
  |   94: Species O             8.29941236       10.08739655        1.47284307
  |   95: Species O             5.99947005       10.59367184       -0.00000024
  |   96: Species O             7.77832024       12.38992522        0.00000061
  |   97: Species Ti            6.86914675       11.59009361        4.43835131
  |   98: Species Ti            4.58191633        9.20515024        2.96711429
  |   99: Species O             5.49356649       12.90348977        4.43834935
  |  100: Species O             8.31115217       10.08178173        4.43835004
  |  101: Species O             6.00150001       10.60118699        2.95573595
  |  102: Species O             7.78817989       12.37760883        2.95689872
  |  103: Species Ti            6.90313907       11.43781065        7.37562140
  |  104: Species Ti            4.58189930        9.20516633        5.90958776
  |  105: Species O             5.48362611       12.89611484        7.39300071
  |  106: Species O             8.29941214       10.08739648        7.40385722
  |  107: Species O             6.00149987       10.60118783        5.92096389
  |  108: Species O             7.78817921       12.37760884        5.91980087
  |  109: Species Ti           11.46149778        2.32560158        1.44551268
  |  110: Species Ti            9.09116104       -0.01175763       -0.00000106
  |  111: Species O            10.08196113        3.70518119        1.48316387
  |  112: Species O            12.89654267        0.89052250        1.48177504
  |  113: Species O            10.59860388        1.41693821       -0.00000005
  |  114: Species O            12.37020263        3.18845692        0.00000076
  |  115: Species Ti           11.54474712        2.24246208        4.43834889
  |  116: Species Ti            9.24119378        0.00156326        2.93499459
  |  117: Species O            10.06435834        3.72278663        4.43835106
  |  118: Species O            12.89023434        0.89684402        4.43835093
  |  119: Species O            10.59471819        1.40584446        2.96449450
  |  120: Species O            12.38129593        3.19235122        2.96449744
  |  121: Species Ti           11.46148827        2.32562488        7.43118475
  |  122: Species Ti            9.24120064        0.00156666        5.94170590
  |  123: Species O            10.08196054        3.70518138        7.39353571
  |  124: Species O            12.89654391        0.89052267        7.39492583
  |  125: Species O            10.59471899        1.40584399        5.91220610
  |  126: Species O            12.38129588        3.19235174        5.91220304
  |  127: Species Ti           11.43770690        6.90312681        1.50100803
  |  128: Species Ti            9.15595757        4.63095019        0.00000176
  |  129: Species O            10.08742549        8.29945047        1.47284779
  |  130: Species O            12.89608880        5.48357989        1.48370380
  |  131: Species O            10.59364642        5.99951982        0.00000002
  |  132: Species O            12.38995431        7.77828413        0.00000039
  |  133: Species Ti           11.59013841        6.86916678        4.43834962
  |  134: Species Ti            9.20519787        4.58194084        2.96710565
  |  135: Species O            10.08182039        8.31119047        4.43834956
  |  136: Species O            12.90345653        5.49353738        4.43835015
  |  137: Species O            10.60115483        6.00153824        2.95573754
  |  138: Species O            12.37765672        7.78815206        2.95690515
  |  139: Species Ti           11.43770211        6.90311792        7.37569340
  |  140: Species Ti            9.20517605        4.58195251        5.90959222
  |  141: Species O            10.08742508        8.29944974        7.40385238
  |  142: Species O            12.89608831        5.48357980        7.39299669
  |  143: Species O            10.60115379        6.00153869        5.92096317
  |  144: Species O            12.37765700        7.78815247        5.91979530
  |  145: Species Ti           11.47573759       11.47578415        1.45919640
  |  146: Species Ti            9.13995247        9.14002739       -0.00000160
  |  147: Species O            10.08489005       12.89527535        1.48001821
  |  148: Species O            12.89523435       10.08485154        1.48001838
  |  149: Species O            10.60321152       10.60325675        0.00000028
  |  150: Species O            12.38268878       12.38265476       -0.00000049
  |  151: Species Ti           11.52847627       11.52833689        4.43834778
  |  152: Species Ti            9.22624352        9.22624340        3.00111184
  |  153: Species O            10.09338011       12.89495316        4.43835012
  |  154: Species O            12.89490684       10.09335355        4.43834995
  |  155: Species O            10.60354816       10.60358774        2.95699024
  |  156: Species O            12.38774937       12.38771857        2.96124851
  |  157: Species Ti           11.47572589       11.47576716        7.41750127
  |  158: Species Ti            9.22623864        9.22622978        5.87558318
  |  159: Species O            10.08488860       12.89527423        7.39668212
  |  160: Species O            12.89523387       10.08485089        7.39668045
  |  161: Species O            10.60354771       10.60358657        5.91970973
  |  162: Species O            12.38774848       12.38771913        5.91545130

  Lattice parameters for 3D lattice (in Angstroms) :    13.787100   13.787100    8.876700
  Angle(s) between unit vectors (in degrees)       :    90.000000   90.000000   90.000000


  Quantities derived from the lattice vectors (in Angstrom^-1):
  | Reciprocal lattice vector 1:  0.455729  0.000000  0.000000
  | Reciprocal lattice vector 2:  0.000000  0.455729  0.000000
  | Reciprocal lattice vector 3:  0.000000  0.000000  0.707829
  | Unit cell volume                               :   0.168732E+04  Angstrom^3

  Fractional coordinates:
                         L1                L2                L3
       atom_frac         0.16764801        0.16764426        0.16438526  Ti
       atom_frac         0.00000094       -0.00000101       -0.00000001  Ti
       atom_frac         0.06468853        0.26852986        0.16673072  O
       atom_frac         0.26852726        0.06468547        0.16673066  O
       atom_frac         0.10186437        0.10186639        0.00000004  O
       atom_frac         0.23093249        0.23092909       -0.00000007  O
       atom_frac         0.16382130        0.16383193        0.50000022  Ti
       atom_frac         0.00000014        0.00000081        0.32845216  Ti
       atom_frac         0.06471234        0.26791321        0.50000003  O
       atom_frac         0.26791131        0.06470867        0.49999995  O
       atom_frac         0.10149703        0.10149936        0.33359794  O
       atom_frac         0.23090813        0.23090511        0.33311823  O
       atom_frac         0.16764664        0.16764335        0.83561507  Ti
       atom_frac        -0.00000189        0.00000102        0.67154780  Ti
       atom_frac         0.06468847        0.26852979        0.83326930  O
       atom_frac         0.26852717        0.06468535        0.83326932  O
       atom_frac         0.10149700        0.10149938        0.66640212  O
       atom_frac         0.23090808        0.23090504        0.66688182  O
       atom_frac         0.17040549        0.49930571        0.16909530  Ti
       atom_frac         0.00085590        0.34060119        0.00000014  Ti
       atom_frac         0.06462660        0.60226731        0.16714580  O
       atom_frac         0.26834333        0.39802779        0.16592282  O
       atom_frac         0.10133731        0.43582874        0.00000000  O
       atom_frac         0.23162629        0.56484538       -0.00000005  O
       atom_frac         0.15934906        0.50176831        0.49999990  Ti
       atom_frac        -0.00011079        0.32972969        0.33063329  Ti
       atom_frac         0.06409217        0.60154502        0.49999996  O
       atom_frac         0.26874973        0.39717616        0.49999999  O
       atom_frac         0.10222922        0.43511307        0.33310847  O
       atom_frac         0.23108177        0.56469888        0.33297698  O
       atom_frac         0.17040550        0.49930595        0.83090482  Ti
       atom_frac        -0.00011057        0.32973003        0.66936655  Ti
       atom_frac         0.06462658        0.60226723        0.83285419  O
       atom_frac         0.26834335        0.39802783        0.83407711  O
       atom_frac         0.10222920        0.43511299        0.66689144  O
       atom_frac         0.23108165        0.56469895        0.66702300  O
       atom_frac         0.16868096        0.83131929        0.16284410  Ti
       atom_frac        -0.00085551        0.65939886        0.00000011  Ti
       atom_frac         0.06459336        0.93540912        0.16692872  O
       atom_frac         0.26873963        0.73125736        0.16708499  O
       atom_frac         0.10276977        0.76873620       -0.00000002  O
       atom_frac         0.23126660        0.89722728       -0.00000004  O
       atom_frac         0.16263944        0.83735273        0.50000019  Ti
       atom_frac         0.00011095        0.67027048        0.33063351  Ti
       atom_frac         0.06505080        0.93495074        0.49999994  O
       atom_frac         0.27001651        0.72998014        0.49999990  O
       atom_frac         0.10196519        0.76845379        0.33396377  O
       atom_frac         0.23154839        0.89803194        0.33396341  O
       atom_frac         0.16867908        0.83131979        0.83715621  Ti
       atom_frac         0.00011046        0.67026984        0.66936635  Ti
       atom_frac         0.06459335        0.93540904        0.83307127  O
       atom_frac         0.26873955        0.73125734        0.83291499  O
       atom_frac         0.10196518        0.76845375        0.66603617  O
       atom_frac         0.23154839        0.89803190        0.66603647  O
       atom_frac         0.49930484        0.17039772        0.16910302  Ti
       atom_frac         0.34060386        0.00085244       -0.00000014  Ti
       atom_frac         0.39803068        0.26834519        0.16592240  O
       atom_frac         0.60226405        0.06462443        0.16714538  O
       atom_frac         0.43582633        0.10133914       -0.00000001  O
       atom_frac         0.56484903        0.23162428       -0.00000001  O
       atom_frac         0.50177015        0.15935229        0.50000002  Ti
       atom_frac         0.32972168       -0.00011326        0.33064052  Ti
       atom_frac         0.39717919        0.26875248        0.50000003  O
       atom_frac         0.60154307        0.06408952        0.49999998  O
       atom_frac         0.43511121        0.10223244        0.33310796  O
       atom_frac         0.56470187        0.23107917        0.33297695  O
       atom_frac         0.49930444        0.17039740        0.83089699  Ti
       atom_frac         0.32972127       -0.00011360        0.66935967  Ti
       atom_frac         0.39803060        0.26834516        0.83407756  O
       atom_frac         0.60226409        0.06462448        0.83285464  O
       atom_frac         0.43511117        0.10223251        0.66689205  O
       atom_frac         0.56470184        0.23107918        0.66702310  O
       atom_frac         0.50000038        0.50000035        0.17080714  Ti
       atom_frac         0.33706489        0.33705952        0.00000021  Ti
       atom_frac         0.39806254        0.60193990        0.16572369  O
       atom_frac         0.60193761        0.39805998        0.16572386  O
       atom_frac         0.43496474        0.43496659       -0.00000006  O
       atom_frac         0.56503537        0.56503326        0.00000007  O
       atom_frac         0.50000000        0.49999996        0.49999999  Pd
       atom_frac         0.33080682        0.33080682        0.33808930  Ti
       atom_frac         0.39823293        0.60176894        0.49999999  O
       atom_frac         0.60176711        0.39823093        0.50000000  O
       atom_frac         0.43411473        0.43411711        0.32835662  O
       atom_frac         0.56588535        0.56588286        0.32835672  O
       atom_frac         0.49999899        0.50000029        0.82919276  Ti
       atom_frac         0.33080591        0.33080614        0.66191140  Ti
       atom_frac         0.39806248        0.60193989        0.83427632  O
       atom_frac         0.60193754        0.39806000        0.83427613  O
       atom_frac         0.43411471        0.43411705        0.67164324  O
       atom_frac         0.56588535        0.56588279        0.67164336  O
       atom_frac         0.50069516        0.82960241        0.16910306  Ti
       atom_frac         0.33590411        0.66411006       -0.00000019  Ti
       atom_frac         0.39773599        0.93537539        0.16714532  O
       atom_frac         0.60196940        0.73165470        0.16592237  O
       atom_frac         0.43515098        0.76837564       -0.00000003  O
       atom_frac         0.56417377        0.89866072        0.00000007  O
       atom_frac         0.49822999        0.84064768        0.50000015  Ti
       atom_frac         0.33233358        0.66766399        0.33425871  Ti
       atom_frac         0.39845700        0.93591036        0.49999993  O
       atom_frac         0.60282091        0.73124745        0.50000000  O
       atom_frac         0.43529821        0.76892073        0.33297689  O
       atom_frac         0.56488891        0.89776739        0.33310788  O
       atom_frac         0.50069551        0.82960236        0.83089677  Ti
       atom_frac         0.33233235        0.66766516        0.66574152  Ti
       atom_frac         0.39773601        0.93537545        0.83285463  O
       atom_frac         0.60196939        0.73165470        0.83407767  O
       atom_frac         0.43529820        0.76892079        0.66702309  O
       atom_frac         0.56488886        0.89776739        0.66689207  O
       atom_frac         0.83132042        0.16867953        0.16284348  Ti
       atom_frac         0.65939618       -0.00085280       -0.00000012  Ti
       atom_frac         0.73126046        0.26874261        0.16708505  O
       atom_frac         0.93540648        0.06459099        0.16692859  O
       atom_frac         0.76873337        0.10277275       -0.00000001  O
       atom_frac         0.89723021        0.23126378        0.00000009  O
       atom_frac         0.83735863        0.16264929        0.49999987  Ti
       atom_frac         0.67027829        0.00011339        0.33064028  Ti
       atom_frac         0.72998371        0.27001956        0.50000012  O
       atom_frac         0.93494893        0.06504950        0.50000010  O
       atom_frac         0.76845154        0.10196811        0.33396358  O
       atom_frac         0.89803482        0.23154624        0.33396391  O
       atom_frac         0.83131973        0.16868122        0.83715624  Ti
       atom_frac         0.67027879        0.00011363        0.66935977  Ti
       atom_frac         0.73126042        0.26874262        0.83291490  O
       atom_frac         0.93540657        0.06459101        0.83307151  O
       atom_frac         0.76845160        0.10196807        0.66603649  O
       atom_frac         0.89803482        0.23154628        0.66603614  O
       atom_frac         0.82959483        0.50069462        0.16909528  Ti
       atom_frac         0.66409597        0.33589008        0.00000020  Ti
       atom_frac         0.73165680        0.60197217        0.16592290  O
       atom_frac         0.93537356        0.39773266        0.16714588  O
       atom_frac         0.76837380        0.43515459        0.00000000  O
       atom_frac         0.89866283        0.56417116        0.00000004  O
       atom_frac         0.84065093        0.49823145        0.49999996  Ti
       atom_frac         0.66766745        0.33233536        0.33425774  Ti
       atom_frac         0.73125025        0.60282369        0.49999995  O
       atom_frac         0.93590795        0.39845489        0.50000002  O
       atom_frac         0.76891840        0.43530099        0.33297707  O
       atom_frac         0.89777087        0.56488689        0.33310860  O
       atom_frac         0.82959448        0.50069398        0.83090489  Ti
       atom_frac         0.66766586        0.33233621        0.66574202  Ti
       atom_frac         0.73165677        0.60197211        0.83407712  O
       atom_frac         0.93537352        0.39773265        0.83285418  O
       atom_frac         0.76891832        0.43530102        0.66702301  O
       atom_frac         0.89777089        0.56488692        0.66689145  O
       atom_frac         0.83235326        0.83235663        0.16438501  Ti
       atom_frac         0.66293510        0.66294053       -0.00000018  Ti
       atom_frac         0.73147290        0.93531456        0.16673068  O
       atom_frac         0.93531158        0.73147011        0.16673070  O
       atom_frac         0.76906757        0.76907085        0.00000003  O
       atom_frac         0.89813585        0.89813338       -0.00000005  O
       atom_frac         0.83617848        0.83616837        0.49999975  Ti
       atom_frac         0.66919392        0.66919391        0.33808869  Ti
       atom_frac         0.73208870        0.93529119        0.50000001  O
       atom_frac         0.93528783        0.73208677        0.49999999  O
       atom_frac         0.76909199        0.76909486        0.33311819  O
       atom_frac         0.89850290        0.89850067        0.33359790  O
       atom_frac         0.83235241        0.83235540        0.83561473  Ti
       atom_frac         0.66919357        0.66919293        0.66191075  Ti
       atom_frac         0.73147280        0.93531448        0.83326936  O
       atom_frac         0.93531155        0.73147006        0.83326917  O
       atom_frac         0.76909196        0.76909477        0.66688181  O
       atom_frac         0.89850284        0.89850071        0.66640207  O

 
  Finished reading input file 'geometry.in'.
 

 
  Consistency checks for stacksize environment parameter are next.
 
  | Maximum stacksize for task 0: unlimited
  | Maximum stacksize for task 1: unlimited
  | Maximum stacksize for task 2: unlimited
  | Maximum stacksize for task 3: unlimited
  | Maximum stacksize for task 4: unlimited
  | Maximum stacksize for task 5: unlimited
  | Maximum stacksize for task 6: unlimited
  | Maximum stacksize for task 7: unlimited
  | Maximum stacksize for task 8: unlimited
  | Maximum stacksize for task 9: unlimited
  | Maximum stacksize for task 10: unlimited
  | Maximum stacksize for task 11: unlimited
  | Maximum stacksize for task 12: unlimited
  | Maximum stacksize for task 13: unlimited
  | Maximum stacksize for task 14: unlimited
  | Maximum stacksize for task 15: unlimited
  | Maximum stacksize for task 16: unlimited
  | Maximum stacksize for task 17: unlimited
  | Maximum stacksize for task 18: unlimited
  | Maximum stacksize for task 19: unlimited
  | Maximum stacksize for task 20: unlimited
  | Maximum stacksize for task 21: unlimited
  | Maximum stacksize for task 22: unlimited
  | Maximum stacksize for task 23: unlimited
  | Maximum stacksize for task 24: unlimited
  | Maximum stacksize for task 25: unlimited
  | Maximum stacksize for task 26: unlimited
  | Maximum stacksize for task 27: unlimited
  | Maximum stacksize for task 28: unlimited
  | Maximum stacksize for task 29: unlimited
  | Maximum stacksize for task 30: unlimited
  | Maximum stacksize for task 31: unlimited
  | Maximum stacksize for task 32: unlimited
  | Maximum stacksize for task 33: unlimited
  | Maximum stacksize for task 34: unlimited
  | Maximum stacksize for task 35: unlimited
  | Maximum stacksize for task 36: unlimited
  | Maximum stacksize for task 37: unlimited
  | Maximum stacksize for task 38: unlimited
  | Maximum stacksize for task 39: unlimited
  | Maximum stacksize for task 40: unlimited
  | Maximum stacksize for task 41: unlimited
  | Maximum stacksize for task 42: unlimited
  | Maximum stacksize for task 43: unlimited
  | Maximum stacksize for task 44: unlimited
  | Maximum stacksize for task 45: unlimited
  | Maximum stacksize for task 46: unlimited
  | Maximum stacksize for task 47: unlimited
  | Maximum stacksize for task 48: unlimited
  | Maximum stacksize for task 49: unlimited
  | Maximum stacksize for task 50: unlimited
  | Maximum stacksize for task 51: unlimited
  | Maximum stacksize for task 52: unlimited
  | Maximum stacksize for task 53: unlimited
  | Maximum stacksize for task 54: unlimited
  | Maximum stacksize for task 55: unlimited
  | Maximum stacksize for task 56: unlimited
  | Maximum stacksize for task 57: unlimited
  | Maximum stacksize for task 58: unlimited
  | Maximum stacksize for task 59: unlimited
  | Maximum stacksize for task 60: unlimited
  | Maximum stacksize for task 61: unlimited
  | Maximum stacksize for task 62: unlimited
  | Maximum stacksize for task 63: unlimited
  | Maximum stacksize for task 64: unlimited
  | Maximum stacksize for task 65: unlimited
  | Maximum stacksize for task 66: unlimited
  | Maximum stacksize for task 67: unlimited
  | Maximum stacksize for task 68: unlimited
  | Maximum stacksize for task 69: unlimited
  | Maximum stacksize for task 70: unlimited
  | Maximum stacksize for task 71: unlimited
  | Maximum stacksize for task 72: unlimited
  | Maximum stacksize for task 73: unlimited
  | Maximum stacksize for task 74: unlimited
  | Maximum stacksize for task 75: unlimited
  | Maximum stacksize for task 76: unlimited
  | Maximum stacksize for task 77: unlimited
  | Maximum stacksize for task 78: unlimited
  | Maximum stacksize for task 79: unlimited
  | Maximum stacksize for task 80: unlimited
  | Maximum stacksize for task 81: unlimited
  | Maximum stacksize for task 82: unlimited
  | Maximum stacksize for task 83: unlimited
  | Maximum stacksize for task 84: unlimited
  | Maximum stacksize for task 85: unlimited
  | Maximum stacksize for task 86: unlimited
  | Maximum stacksize for task 87: unlimited
  | Maximum stacksize for task 88: unlimited
  | Maximum stacksize for task 89: unlimited
  | Maximum stacksize for task 90: unlimited
  | Maximum stacksize for task 91: unlimited
  | Maximum stacksize for task 92: unlimited
  | Maximum stacksize for task 93: unlimited
  | Maximum stacksize for task 94: unlimited
  | Maximum stacksize for task 95: unlimited
  | Maximum stacksize for task 96: unlimited
  | Maximum stacksize for task 97: unlimited
  | Maximum stacksize for task 98: unlimited
  | Maximum stacksize for task 99: unlimited
  | Maximum stacksize for task 100: unlimited
  | Maximum stacksize for task 101: unlimited
  | Maximum stacksize for task 102: unlimited
  | Maximum stacksize for task 103: unlimited
  | Maximum stacksize for task 104: unlimited
  | Maximum stacksize for task 105: unlimited
  | Maximum stacksize for task 106: unlimited
  | Maximum stacksize for task 107: unlimited
  | Maximum stacksize for task 108: unlimited
  | Maximum stacksize for task 109: unlimited
  | Maximum stacksize for task 110: unlimited
  | Maximum stacksize for task 111: unlimited
  | Maximum stacksize for task 112: unlimited
  | Maximum stacksize for task 113: unlimited
  | Maximum stacksize for task 114: unlimited
  | Maximum stacksize for task 115: unlimited
  | Maximum stacksize for task 116: unlimited
  | Maximum stacksize for task 117: unlimited
  | Maximum stacksize for task 118: unlimited
  | Maximum stacksize for task 119: unlimited
  | Maximum stacksize for task 120: unlimited
  | Maximum stacksize for task 121: unlimited
  | Maximum stacksize for task 122: unlimited
  | Maximum stacksize for task 123: unlimited
  | Maximum stacksize for task 124: unlimited
  | Maximum stacksize for task 125: unlimited
  | Maximum stacksize for task 126: unlimited
  | Maximum stacksize for task 127: unlimited
  | Maximum stacksize for task 128: unlimited
  | Maximum stacksize for task 129: unlimited
  | Maximum stacksize for task 130: unlimited
  | Maximum stacksize for task 131: unlimited
  | Maximum stacksize for task 132: unlimited
  | Maximum stacksize for task 133: unlimited
  | Maximum stacksize for task 134: unlimited
  | Maximum stacksize for task 135: unlimited
  | Maximum stacksize for task 136: unlimited
  | Maximum stacksize for task 137: unlimited
  | Maximum stacksize for task 138: unlimited
  | Maximum stacksize for task 139: unlimited
  | Maximum stacksize for task 140: unlimited
  | Maximum stacksize for task 141: unlimited
  | Maximum stacksize for task 142: unlimited
  | Maximum stacksize for task 143: unlimited
  | Maximum stacksize for task 144: unlimited
  | Maximum stacksize for task 145: unlimited
  | Maximum stacksize for task 146: unlimited
  | Maximum stacksize for task 147: unlimited
  | Maximum stacksize for task 148: unlimited
  | Maximum stacksize for task 149: unlimited
  | Maximum stacksize for task 150: unlimited
  | Maximum stacksize for task 151: unlimited
  | Maximum stacksize for task 152: unlimited
  | Maximum stacksize for task 153: unlimited
  | Maximum stacksize for task 154: unlimited
  | Maximum stacksize for task 155: unlimited
  | Maximum stacksize for task 156: unlimited
  | Maximum stacksize for task 157: unlimited
  | Maximum stacksize for task 158: unlimited
  | Maximum stacksize for task 159: unlimited
  | Maximum stacksize for task 160: unlimited
  | Maximum stacksize for task 161: unlimited
  | Maximum stacksize for task 162: unlimited
  | Maximum stacksize for task 163: unlimited
  | Maximum stacksize for task 164: unlimited
  | Maximum stacksize for task 165: unlimited
  | Maximum stacksize for task 166: unlimited
  | Maximum stacksize for task 167: unlimited
  | Maximum stacksize for task 168: unlimited
  | Maximum stacksize for task 169: unlimited
  | Maximum stacksize for task 170: unlimited
  | Maximum stacksize for task 171: unlimited
  | Maximum stacksize for task 172: unlimited
  | Maximum stacksize for task 173: unlimited
  | Maximum stacksize for task 174: unlimited
  | Maximum stacksize for task 175: unlimited
  | Maximum stacksize for task 176: unlimited
  | Maximum stacksize for task 177: unlimited
  | Maximum stacksize for task 178: unlimited
  | Maximum stacksize for task 179: unlimited
  | Maximum stacksize for task 180: unlimited
  | Maximum stacksize for task 181: unlimited
  | Maximum stacksize for task 182: unlimited
  | Maximum stacksize for task 183: unlimited
  | Maximum stacksize for task 184: unlimited
  | Maximum stacksize for task 185: unlimited
  | Maximum stacksize for task 186: unlimited
  | Maximum stacksize for task 187: unlimited
  | Maximum stacksize for task 188: unlimited
  | Maximum stacksize for task 189: unlimited
[...]
  | writing   projected DOS (raw data) for species O to file atom_proj_dos_O0101_raw.dat.
  | writing   projected DOS (shifted by the chemical potential) for species O to file atom_proj_dos_O0102.dat.
  | writing   projected DOS (raw data) for species O to file atom_proj_dos_O0102_raw.dat.
  | writing   projected DOS (shifted by the chemical potential) for species Ti to file atom_proj_dos_Ti0103.dat.
  | writing   projected DOS (raw data) for species Ti to file atom_proj_dos_Ti0103_raw.dat.
  | writing   projected DOS (shifted by the chemical potential) for species Ti to file atom_proj_dos_Ti0104.dat.
  | writing   projected DOS (raw data) for species Ti to file atom_proj_dos_Ti0104_raw.dat.
  | writing   projected DOS (shifted by the chemical potential) for species O to file atom_proj_dos_O0105.dat.
  | writing   projected DOS (raw data) for species O to file atom_proj_dos_O0105_raw.dat.
  | writing   projected DOS (shifted by the chemical potential) for species O to file atom_proj_dos_O0106.dat.
  | writing   projected DOS (raw data) for species O to file atom_proj_dos_O0106_raw.dat.
  | writing   projected DOS (shifted by the chemical potential) for species O to file atom_proj_dos_O0107.dat.
  | writing   projected DOS (raw data) for species O to file atom_proj_dos_O0107_raw.dat.
  | writing   projected DOS (shifted by the chemical potential) for species O to file atom_proj_dos_O0108.dat.
  | writing   projected DOS (raw data) for species O to file atom_proj_dos_O0108_raw.dat.
  | writing   projected DOS (shifted by the chemical potential) for species Ti to file atom_proj_dos_Ti0109.dat.
  | writing   projected DOS (raw data) for species Ti to file atom_proj_dos_Ti0109_raw.dat.
  | writing   projected DOS (shifted by the chemical potential) for species Ti to file atom_proj_dos_Ti0110.dat.
  | writing   projected DOS (raw data) for species Ti to file atom_proj_dos_Ti0110_raw.dat.
  | writing   projected DOS (shifted by the chemical potential) for species O to file atom_proj_dos_O0111.dat.
  | writing   projected DOS (raw data) for species O to file atom_proj_dos_O0111_raw.dat.
  | writing   projected DOS (shifted by the chemical potential) for species O to file atom_proj_dos_O0112.dat.
  | writing   projected DOS (raw data) for species O to file atom_proj_dos_O0112_raw.dat.
  | writing   projected DOS (shifted by the chemical potential) for species O to file atom_proj_dos_O0113.dat.
  | writing   projected DOS (raw data) for species O to file atom_proj_dos_O0113_raw.dat.
  | writing   projected DOS (shifted by the chemical potential) for species O to file atom_proj_dos_O0114.dat.
  | writing   projected DOS (raw data) for species O to file atom_proj_dos_O0114_raw.dat.
  | writing   projected DOS (shifted by the chemical potential) for species Ti to file atom_proj_dos_Ti0115.dat.
  | writing   projected DOS (raw data) for species Ti to file atom_proj_dos_Ti0115_raw.dat.
  | writing   projected DOS (shifted by the chemical potential) for species Ti to file atom_proj_dos_Ti0116.dat.
  | writing   projected DOS (raw data) for species Ti to file atom_proj_dos_Ti0116_raw.dat.
  | writing   projected DOS (shifted by the chemical potential) for species O to file atom_proj_dos_O0117.dat.
  | writing   projected DOS (raw data) for species O to file atom_proj_dos_O0117_raw.dat.
  | writing   projected DOS (shifted by the chemical potential) for species O to file atom_proj_dos_O0118.dat.
  | writing   projected DOS (raw data) for species O to file atom_proj_dos_O0118_raw.dat.
  | writing   projected DOS (shifted by the chemical potential) for species O to file atom_proj_dos_O0119.dat.
  | writing   projected DOS (raw data) for species O to file atom_proj_dos_O0119_raw.dat.
  | writing   projected DOS (shifted by the chemical potential) for species O to file atom_proj_dos_O0120.dat.
  | writing   projected DOS (raw data) for species O to file atom_proj_dos_O0120_raw.dat.
  | writing   projected DOS (shifted by the chemical potential) for species Ti to file atom_proj_dos_Ti0121.dat.
  | writing   projected DOS (raw data) for species Ti to file atom_proj_dos_Ti0121_raw.dat.
  | writing   projected DOS (shifted by the chemical potential) for species Ti to file atom_proj_dos_Ti0122.dat.
  | writing   projected DOS (raw data) for species Ti to file atom_proj_dos_Ti0122_raw.dat.
  | writing   projected DOS (shifted by the chemical potential) for species O to file atom_proj_dos_O0123.dat.
  | writing   projected DOS (raw data) for species O to file atom_proj_dos_O0123_raw.dat.
  | writing   projected DOS (shifted by the chemical potential) for species O to file atom_proj_dos_O0124.dat.
  | writing   projected DOS (raw data) for species O to file atom_proj_dos_O0124_raw.dat.
  | writing   projected DOS (shifted by the chemical potential) for species O to file atom_proj_dos_O0125.dat.
  | writing   projected DOS (raw data) for species O to file atom_proj_dos_O0125_raw.dat.
  | writing   projected DOS (shifted by the chemical potential) for species O to file atom_proj_dos_O0126.dat.
  | writing   projected DOS (raw data) for species O to file atom_proj_dos_O0126_raw.dat.
  | writing   projected DOS (shifted by the chemical potential) for species Ti to file atom_proj_dos_Ti0127.dat.
  | writing   projected DOS (raw data) for species Ti to file atom_proj_dos_Ti0127_raw.dat.
  | writing   projected DOS (shifted by the chemical potential) for species Ti to file atom_proj_dos_Ti0128.dat.
  | writing   projected DOS (raw data) for species Ti to file atom_proj_dos_Ti0128_raw.dat.
  | writing   projected DOS (shifted by the chemical potential) for species O to file atom_proj_dos_O0129.dat.
  | writing   projected DOS (raw data) for species O to file atom_proj_dos_O0129_raw.dat.
  | writing   projected DOS (shifted by the chemical potential) for species O to file atom_proj_dos_O0130.dat.
  | writing   projected DOS (raw data) for species O to file atom_proj_dos_O0130_raw.dat.
  | writing   projected DOS (shifted by the chemical potential) for species O to file atom_proj_dos_O0131.dat.
  | writing   projected DOS (raw data) for species O to file atom_proj_dos_O0131_raw.dat.
  | writing   projected DOS (shifted by the chemical potential) for species O to file atom_proj_dos_O0132.dat.
  | writing   projected DOS (raw data) for species O to file atom_proj_dos_O0132_raw.dat.
  | writing   projected DOS (shifted by the chemical potential) for species Ti to file atom_proj_dos_Ti0133.dat.
  | writing   projected DOS (raw data) for species Ti to file atom_proj_dos_Ti0133_raw.dat.
  | writing   projected DOS (shifted by the chemical potential) for species Ti to file atom_proj_dos_Ti0134.dat.
  | writing   projected DOS (raw data) for species Ti to file atom_proj_dos_Ti0134_raw.dat.
  | writing   projected DOS (shifted by the chemical potential) for species O to file atom_proj_dos_O0135.dat.
  | writing   projected DOS (raw data) for species O to file atom_proj_dos_O0135_raw.dat.
  | writing   projected DOS (shifted by the chemical potential) for species O to file atom_proj_dos_O0136.dat.
  | writing   projected DOS (raw data) for species O to file atom_proj_dos_O0136_raw.dat.
  | writing   projected DOS (shifted by the chemical potential) for species O to file atom_proj_dos_O0137.dat.
  | writing   projected DOS (raw data) for species O to file atom_proj_dos_O0137_raw.dat.
  | writing   projected DOS (shifted by the chemical potential) for species O to file atom_proj_dos_O0138.dat.
  | writing   projected DOS (raw data) for species O to file atom_proj_dos_O0138_raw.dat.
  | writing   projected DOS (shifted by the chemical potential) for species Ti to file atom_proj_dos_Ti0139.dat.
  | writing   projected DOS (raw data) for species Ti to file atom_proj_dos_Ti0139_raw.dat.
  | writing   projected DOS (shifted by the chemical potential) for species Ti to file atom_proj_dos_Ti0140.dat.
  | writing   projected DOS (raw data) for species Ti to file atom_proj_dos_Ti0140_raw.dat.
  | writing   projected DOS (shifted by the chemical potential) for species O to file atom_proj_dos_O0141.dat.
  | writing   projected DOS (raw data) for species O to file atom_proj_dos_O0141_raw.dat.
  | writing   projected DOS (shifted by the chemical potential) for species O to file atom_proj_dos_O0142.dat.
  | writing   projected DOS (raw data) for species O to file atom_proj_dos_O0142_raw.dat.
  | writing   projected DOS (shifted by the chemical potential) for species O to file atom_proj_dos_O0143.dat.
  | writing   projected DOS (raw data) for species O to file atom_proj_dos_O0143_raw.dat.
  | writing   projected DOS (shifted by the chemical potential) for species O to file atom_proj_dos_O0144.dat.
  | writing   projected DOS (raw data) for species O to file atom_proj_dos_O0144_raw.dat.
  | writing   projected DOS (shifted by the chemical potential) for species Ti to file atom_proj_dos_Ti0145.dat.
  | writing   projected DOS (raw data) for species Ti to file atom_proj_dos_Ti0145_raw.dat.
  | writing   projected DOS (shifted by the chemical potential) for species Ti to file atom_proj_dos_Ti0146.dat.
  | writing   projected DOS (raw data) for species Ti to file atom_proj_dos_Ti0146_raw.dat.
  | writing   projected DOS (shifted by the chemical potential) for species O to file atom_proj_dos_O0147.dat.
  | writing   projected DOS (raw data) for species O to file atom_proj_dos_O0147_raw.dat.
  | writing   projected DOS (shifted by the chemical potential) for species O to file atom_proj_dos_O0148.dat.
  | writing   projected DOS (raw data) for species O to file atom_proj_dos_O0148_raw.dat.
  | writing   projected DOS (shifted by the chemical potential) for species O to file atom_proj_dos_O0149.dat.
  | writing   projected DOS (raw data) for species O to file atom_proj_dos_O0149_raw.dat.
  | writing   projected DOS (shifted by the chemical potential) for species O to file atom_proj_dos_O0150.dat.
  | writing   projected DOS (raw data) for species O to file atom_proj_dos_O0150_raw.dat.
  | writing   projected DOS (shifted by the chemical potential) for species Ti to file atom_proj_dos_Ti0151.dat.
  | writing   projected DOS (raw data) for species Ti to file atom_proj_dos_Ti0151_raw.dat.
  | writing   projected DOS (shifted by the chemical potential) for species Ti to file atom_proj_dos_Ti0152.dat.
  | writing   projected DOS (raw data) for species Ti to file atom_proj_dos_Ti0152_raw.dat.
  | writing   projected DOS (shifted by the chemical potential) for species O to file atom_proj_dos_O0153.dat.
  | writing   projected DOS (raw data) for species O to file atom_proj_dos_O0153_raw.dat.
  | writing   projected DOS (shifted by the chemical potential) for species O to file atom_proj_dos_O0154.dat.
  | writing   projected DOS (raw data) for species O to file atom_proj_dos_O0154_raw.dat.
  | writing   projected DOS (shifted by the chemical potential) for species O to file atom_proj_dos_O0155.dat.
  | writing   projected DOS (raw data) for species O to file atom_proj_dos_O0155_raw.dat.
  | writing   projected DOS (shifted by the chemical potential) for species O to file atom_proj_dos_O0156.dat.
  | writing   projected DOS (raw data) for species O to file atom_proj_dos_O0156_raw.dat.
  | writing   projected DOS (shifted by the chemical potential) for species Ti to file atom_proj_dos_Ti0157.dat.
  | writing   projected DOS (raw data) for species Ti to file atom_proj_dos_Ti0157_raw.dat.
  | writing   projected DOS (shifted by the chemical potential) for species Ti to file atom_proj_dos_Ti0158.dat.
  | writing   projected DOS (raw data) for species Ti to file atom_proj_dos_Ti0158_raw.dat.
  | writing   projected DOS (shifted by the chemical potential) for species O to file atom_proj_dos_O0159.dat.
  | writing   projected DOS (raw data) for species O to file atom_proj_dos_O0159_raw.dat.
  | writing   projected DOS (shifted by the chemical potential) for species O to file atom_proj_dos_O0160.dat.
  | writing   projected DOS (raw data) for species O to file atom_proj_dos_O0160_raw.dat.
  | writing   projected DOS (shifted by the chemical potential) for species O to file atom_proj_dos_O0161.dat.
  | writing   projected DOS (raw data) for species O to file atom_proj_dos_O0161_raw.dat.
  | writing   projected DOS (shifted by the chemical potential) for species O to file atom_proj_dos_O0162.dat.
  | writing   projected DOS (raw data) for species O to file atom_proj_dos_O0162_raw.dat.
  Mulliken analysis                                       :  max(cpu_time)    wall_clock(cpu1)
  | Time for Mulliken analysis                            :          0.807               1.003
  | Total time for Mulliken analysis                      :          0.807               1.003
------------------------------------------------------------

------------------------------------------------------------------------------
  Final output of selected total energy values:

  The following output summarizes some interesting total energy values
  at the end of a run (AFTER all relaxation, molecular dynamics, etc.).

  | Total energy of the DFT / Hartree-Fock s.c.f. calculation      :       -1598241.470591523 eV
  | Final zero-broadening corrected energy (caution - metals only) :       -1598241.470591523 eV
  | For reference only, the value of 1 Hartree used in FHI-aims is :             27.211384500 eV
  | For reference only, the overall average (free atom contribution
  | + realspace contribution) of the electrostatic potential after
  | s.c.f. convergence is                                          :            -17.353262445 eV

  Before relying on these values, please be sure to understand exactly which
  total energy value is referred to by a given number. Different objects may
  all carry the same name 'total energy'. Definitions:

  Total energy of the DFT / Hartree-Fock s.c.f. calculation:
  | Note that this energy does not include ANY quantities calculated after the
  | s.c.f. cycle, in particular not ANY RPA, MP2, etc. many-body perturbation terms.

  Final zero-broadening corrected energy:
  | For metallic systems only, a broadening of the occupation numbers at the Fermi
  | level can be extrapolated back to zero broadening by an electron-gas inspired
  | formula. For all systems that are not real metals, this value can be
  | meaningless and should be avoided.

------------------------------------------------------------------------------
  Methods described in the following list of references were used in this FHI-aims run.
  If you publish the results, please make sure to cite these reference if they apply.
  FHI-aims is an academic code, and for our developers (often, Ph.D. students
  and postdocs), scientific credit in the community is essential.
  Thank you for helping us!

  For any use of FHI-aims, please cite:

    Volker Blum, Ralf Gehrke, Felix Hanke, Paula Havu, Ville Havu,
    Xinguo Ren, Karsten Reuter, and Matthias Scheffler
    'Ab initio molecular simulations with numeric atom-centered orbitals'
    Computer Physics Communications 180, 2175-2196 (2009)
    http://doi.org/10.1016/j.cpc.2009.06.022


  The provided symmetry information was generated with SPGlib:

    Atsushi Togo, Yusuke Seto, Dimitar Pashov
    SPGlib 1.7.3 obtained from http://spglib.sourceforge.net
    Copyright (C) 2008 Atsushi Togo


 DFT+U infrastructure was used in your run
 please cite:

 Matthias Kick, Karsten Reuter and Harald Oberhofer,
 Intricacies Of DFT+U, not only in a Numeric Atom Centered Orbital Framework

 Journal of Chemical Theory and Computation
 https://


  The ELSI infrastructure was used in your run to solve the Kohn-Sham electronic structure.
  Please check out http://elsi-interchange.org to learn more.
  If scalability is important for your project, please acknowledge ELSI by citing:

    V. W-z. Yu, F. Corsetti, A. Garcia, W. P. Huhn, M. Jacquelin, W. Jia,
    B. Lange, L. Lin, J. Lu, W. Mi, A. Seifitokaldani, A. Vazquez-Mayagoitia,
    C. Yang, H. Yang, and V. Blum
    'ELSI: A unified software interface for Kohn-Sham electronic structure solvers'
    Computer Physics Communications 222, 267-285 (2018).
    http://doi.org/10.1016/j.cpc.2017.09.007


  For the real-space grid partitioning and parallelization used in this calculation, please cite:

    Ville Havu, Volker Blum, Paula Havu, and Matthias Scheffler,
    'Efficient O(N) integration for all-electron electronic structure calculation'
    'using numerically tabulated basis functions'
    Journal of Computational Physics 228, 8367-8379 (2009).
    http://doi.org/10.1016/j.jcp.2009.08.008

  Of course, there are many other important community references, e.g., those cited in the
  above references. Our list is limited to references that describe implementations in the
  FHI-aims code. The reason is purely practical (length of this list) - please credit others as well.

 * A warning was issued further up regarding the accuracy of onsite integrals.
   An integral with a negative eigenvalue was among the flagged integrals.
   In most standard situations, this warning is probably harmless.
   If needed, this can be verified by adjusting the radial_multiplier flag.

------------------------------------------------------------
          Leaving FHI-aims.
          Date     :  20240717, Time     :  153306.292

          Computational steps:
          | Number of self-consistency cycles          :           29
          | Number of SCF (re)initializations          :            1

          Detailed time accounting                     :  max(cpu_time)    wall_clock(cpu1)
          | Total time                                  :      315.266 s         316.477 s
          | Preparation time                            :        0.948 s           0.947 s
          | Boundary condition initalization            :        0.253 s           0.254 s
          | Grid partitioning                           :        0.379 s           0.379 s
          | Preloading free-atom quantities on grid     :        0.866 s           0.870 s
          | Free-atom superposition energy              :        0.157 s           0.157 s
          | Total time for integrations                 :       43.824 s          43.945 s
          | Total time for solution of K.-S. equations  :       95.622 s          66.331 s
          | Total time for density & force components   :       74.762 s          74.941 s
          | Total time for mixing & preconditioning     :       50.879 s          50.824 s
          | Total time for Hartree multipole update     :        0.453 s           0.466 s
          | Total time for Hartree multipole sum        :       12.706 s          12.737 s
          | Total time for total energy evaluation      :        0.167 s           0.092 s
          | Total time NSC force correction             :        2.456 s           2.555 s
          | Total time for scaled ZORA corrections      :        0.000 s           0.000 s
          | Total time for band structures, DOS         :        0.015 s           0.007 s
          | Total time for Mulliken analysis            :        1.002 s           1.003 s

          Partial memory accounting:
          | Residual value for overall tracked memory usage across tasks:     0.000000 MB (should be 0.000000 MB)
          | Peak values for overall tracked memory usage:
          |   Minimum:      207.048 MB (on task  24 after allocating temp_ham_ovlp)
          |   Maximum:      207.339 MB (on task   0 after allocating temp_ham_ovlp)
          |   Average:      207.281 MB
          | Largest tracked array allocation:
          |   Minimum:       56.258 MB (overlap_matrix on task   0)
          |   Maximum:       56.258 MB (overlap_matrix on task   0)
          |   Average:       56.258 MB
          Note:  These values currently only include a subset of arrays which are explicitly tracked.
          The "true" memory usage will be greater.

          Have a nice day.
------------------------------------------------------------
