------------------------------------------------------------
          Invoking FHI-aims ...

          When using FHI-aims, please cite the following reference:

            Volker Blum, Ralf Gehrke, Felix Hanke, Paula Havu,
            Ville Havu, Xinguo Ren, Karsten Reuter, and Matthias Scheffler,
            'Ab Initio Molecular Simulations with Numeric Atom-Centered Orbitals',
            Computer Physics Communications 180, 2175-2196 (2009)

          In addition, many other developments in FHI-aims are likely important for
          your particular application. If so, please cite them. A partial list of references
          is written at the end of this file. Thank you for giving credit to the authors
          of these developments.

          For general information about FHI-aims please find us at

            https://fhi-aims.org

          Online tutorials can be found at

            https://fhi-aims-club.gitlab.io/tutorials/tutorials-overview/

          For any questions about FHI-aims, please visit our slack channel at

            https://fhi-aims.slack.com

          and our main development and support site at

            https://aims-git.rz-berlin.mpg.de .

          The latter site, in particular, has a wiki to collect information, as well
          as an issue tracker to log discussions, suggest improvements, and report issues
          or bugs. https://aims-git.rz-berlin.mpg.de is also the main development site
          of the project and all new and updated code versions can be obtained there.
          Please send an email to aims-coordinators@fhi-berlin.mpg.de and we will add
          you to these sites. They are for you and everyone is welcome there.

------------------------------------------------------------



  Date     :  20240717, Time     :  191712.536
  Time zero on CPU 1             :   0.221407000000000E+00  s.
  Internal wall clock time zero  :           490475832.536  s.

  FHI-aims created a unique identifier for this run for later identification
  aims_uuid : 2F4A571D-FE94-45AB-A604-49FD07441511

  Build configuration of the current instance of FHI-aims
  -------------------------------------------------------
  FHI-aims version      : 230612
  Commit number         : 0c86b0d53
  CMake host system     : Linux-3.10.0-1160.80.1.el7.x86_64
  CMake version         : 3.24.2
  Fortran compiler      : /apps/compilers/intel/2018.2/compilers_and_libraries_2018/linux/mpi/intel64/bin/mpif90 (Intel) version 18.0.2.20180210
  Fortran compiler flags: -O3 -ip -fp-model precise
  C compiler            : /apps/compilers/intel/2018.2/compilers_and_libraries_2018/linux/bin/intel64/icc (Intel) version 18.0.2.20180210
  C compiler flags      : -O3 -ip -fp-model precise -std=gnu99
  HIP compiler          :
  HIP compiler flags    :
  HIP GPU arch          :
  ELPA2 kernel          : AVX2
  Using MPI
  Using ScaLAPACK
  Using LibXC
  Using i-PI
  Using RLSY
  Linking against: /apps/compilers/intel/2018.2/compilers_and_libraries_2018/linux/mkl/lib/intel64/libmkl_intel_lp64.so
                   /apps/compilers/intel/2018.2/compilers_and_libraries_2018/linux/mkl/lib/intel64/libmkl_intel_thread.so
                   /apps/compilers/intel/2018.2/compilers_and_libraries_2018/linux/mkl/lib/intel64/libmkl_core.so
                   /apps/compilers/intel/2018.2/compilers_and_libraries_2018/linux/mkl/lib/intel64/libmkl_blacs_intelmpi_lp64.so
                   /apps/compilers/intel/2018.2/compilers_and_libraries_2018/linux/mkl/lib/intel64/libmkl_scalapack_lp64.so
                   /usr/lib64/libpthread.so

  Using      200 parallel tasks.
  Task        0 on host ccs0067 reporting.
  Task        1 on host ccs0067 reporting.
  Task        2 on host ccs0067 reporting.
  Task        3 on host ccs0067 reporting.
  Task        4 on host ccs0067 reporting.
  Task        5 on host ccs0067 reporting.
  Task        6 on host ccs0067 reporting.
  Task        7 on host ccs0067 reporting.
  Task        8 on host ccs0067 reporting.
  Task        9 on host ccs0067 reporting.
  Task       10 on host ccs0067 reporting.
  Task       11 on host ccs0067 reporting.
  Task       12 on host ccs0067 reporting.
  Task       13 on host ccs0067 reporting.
  Task       14 on host ccs0067 reporting.
  Task       15 on host ccs0067 reporting.
  Task       16 on host ccs0067 reporting.
  Task       17 on host ccs0067 reporting.
  Task       18 on host ccs0067 reporting.
  Task       19 on host ccs0067 reporting.
  Task       20 on host ccs0067 reporting.
  Task       21 on host ccs0067 reporting.
  Task       22 on host ccs0067 reporting.
  Task       23 on host ccs0067 reporting.
  Task       24 on host ccs0067 reporting.
  Task       25 on host ccs0067 reporting.
  Task       26 on host ccs0067 reporting.
  Task       27 on host ccs0067 reporting.
  Task       28 on host ccs0067 reporting.
  Task       29 on host ccs0067 reporting.
  Task       30 on host ccs0067 reporting.
  Task       31 on host ccs0067 reporting.
  Task       32 on host ccs0067 reporting.
  Task       33 on host ccs0067 reporting.
  Task       34 on host ccs0067 reporting.
  Task       35 on host ccs0067 reporting.
  Task       36 on host ccs0067 reporting.
  Task       37 on host ccs0067 reporting.
  Task       38 on host ccs0067 reporting.
  Task       39 on host ccs0067 reporting.
  Task       40 on host ccs0071 reporting.
  Task       41 on host ccs0071 reporting.
  Task       42 on host ccs0071 reporting.
  Task       43 on host ccs0071 reporting.
  Task       44 on host ccs0071 reporting.
  Task       45 on host ccs0071 reporting.
  Task       46 on host ccs0071 reporting.
  Task       47 on host ccs0071 reporting.
  Task       48 on host ccs0071 reporting.
  Task       49 on host ccs0071 reporting.
  Task       50 on host ccs0071 reporting.
  Task       51 on host ccs0071 reporting.
  Task       52 on host ccs0071 reporting.
  Task       53 on host ccs0071 reporting.
  Task       54 on host ccs0071 reporting.
  Task       55 on host ccs0071 reporting.
  Task       56 on host ccs0071 reporting.
  Task       57 on host ccs0071 reporting.
  Task       58 on host ccs0071 reporting.
  Task       59 on host ccs0071 reporting.
  Task       60 on host ccs0071 reporting.
  Task       61 on host ccs0071 reporting.
  Task       62 on host ccs0071 reporting.
  Task       63 on host ccs0071 reporting.
  Task       64 on host ccs0071 reporting.
  Task       65 on host ccs0071 reporting.
  Task       66 on host ccs0071 reporting.
  Task       67 on host ccs0071 reporting.
  Task       68 on host ccs0071 reporting.
  Task       69 on host ccs0071 reporting.
  Task       70 on host ccs0071 reporting.
  Task       71 on host ccs0071 reporting.
  Task       72 on host ccs0071 reporting.
  Task       73 on host ccs0071 reporting.
  Task       74 on host ccs0071 reporting.
  Task       75 on host ccs0071 reporting.
  Task       76 on host ccs0071 reporting.
  Task       77 on host ccs0071 reporting.
  Task       78 on host ccs0071 reporting.
  Task       79 on host ccs0071 reporting.
  Task       80 on host ccs0072 reporting.
  Task       81 on host ccs0072 reporting.
  Task       82 on host ccs0072 reporting.
  Task       83 on host ccs0072 reporting.
  Task       84 on host ccs0072 reporting.
  Task       85 on host ccs0072 reporting.
  Task       86 on host ccs0072 reporting.
  Task       87 on host ccs0072 reporting.
  Task       88 on host ccs0072 reporting.
  Task       89 on host ccs0072 reporting.
  Task       90 on host ccs0072 reporting.
  Task       91 on host ccs0072 reporting.
  Task       92 on host ccs0072 reporting.
  Task       93 on host ccs0072 reporting.
  Task       94 on host ccs0072 reporting.
  Task       95 on host ccs0072 reporting.
  Task       96 on host ccs0072 reporting.
  Task       97 on host ccs0072 reporting.
  Task       98 on host ccs0072 reporting.
  Task       99 on host ccs0072 reporting.
  Task      100 on host ccs0072 reporting.
  Task      101 on host ccs0072 reporting.
  Task      102 on host ccs0072 reporting.
  Task      103 on host ccs0072 reporting.
  Task      104 on host ccs0072 reporting.
  Task      105 on host ccs0072 reporting.
  Task      106 on host ccs0072 reporting.
  Task      107 on host ccs0072 reporting.
  Task      108 on host ccs0072 reporting.
  Task      109 on host ccs0072 reporting.
  Task      110 on host ccs0072 reporting.
  Task      111 on host ccs0072 reporting.
  Task      112 on host ccs0072 reporting.
  Task      113 on host ccs0072 reporting.
  Task      114 on host ccs0072 reporting.
  Task      115 on host ccs0072 reporting.
  Task      116 on host ccs0072 reporting.
  Task      117 on host ccs0072 reporting.
  Task      118 on host ccs0072 reporting.
  Task      119 on host ccs0072 reporting.
  Task      120 on host ccs0075 reporting.
  Task      121 on host ccs0075 reporting.
  Task      122 on host ccs0075 reporting.
  Task      123 on host ccs0075 reporting.
  Task      124 on host ccs0075 reporting.
  Task      125 on host ccs0075 reporting.
  Task      126 on host ccs0075 reporting.
  Task      127 on host ccs0075 reporting.
  Task      128 on host ccs0075 reporting.
  Task      129 on host ccs0075 reporting.
  Task      130 on host ccs0075 reporting.
  Task      131 on host ccs0075 reporting.
  Task      132 on host ccs0075 reporting.
  Task      133 on host ccs0075 reporting.
  Task      134 on host ccs0075 reporting.
  Task      135 on host ccs0075 reporting.
  Task      136 on host ccs0075 reporting.
  Task      137 on host ccs0075 reporting.
  Task      138 on host ccs0075 reporting.
  Task      139 on host ccs0075 reporting.
  Task      140 on host ccs0075 reporting.
  Task      141 on host ccs0075 reporting.
  Task      142 on host ccs0075 reporting.
  Task      143 on host ccs0075 reporting.
  Task      144 on host ccs0075 reporting.
  Task      145 on host ccs0075 reporting.
  Task      146 on host ccs0075 reporting.
  Task      147 on host ccs0075 reporting.
  Task      148 on host ccs0075 reporting.
  Task      149 on host ccs0075 reporting.
  Task      150 on host ccs0075 reporting.
  Task      151 on host ccs0075 reporting.
  Task      152 on host ccs0075 reporting.
  Task      153 on host ccs0075 reporting.
  Task      154 on host ccs0075 reporting.
  Task      155 on host ccs0075 reporting.
  Task      156 on host ccs0075 reporting.
  Task      157 on host ccs0075 reporting.
  Task      158 on host ccs0075 reporting.
  Task      159 on host ccs0075 reporting.
  Task      160 on host ccs0076 reporting.
  Task      161 on host ccs0076 reporting.
  Task      162 on host ccs0076 reporting.
  Task      163 on host ccs0076 reporting.
  Task      164 on host ccs0076 reporting.
  Task      165 on host ccs0076 reporting.
  Task      166 on host ccs0076 reporting.
  Task      167 on host ccs0076 reporting.
  Task      168 on host ccs0076 reporting.
  Task      169 on host ccs0076 reporting.
  Task      170 on host ccs0076 reporting.
  Task      171 on host ccs0076 reporting.
  Task      172 on host ccs0076 reporting.
  Task      173 on host ccs0076 reporting.
  Task      174 on host ccs0076 reporting.
  Task      175 on host ccs0076 reporting.
  Task      176 on host ccs0076 reporting.
  Task      177 on host ccs0076 reporting.
  Task      178 on host ccs0076 reporting.
  Task      179 on host ccs0076 reporting.
  Task      180 on host ccs0076 reporting.
  Task      181 on host ccs0076 reporting.
  Task      182 on host ccs0076 reporting.
  Task      183 on host ccs0076 reporting.
  Task      184 on host ccs0076 reporting.
  Task      185 on host ccs0076 reporting.
  Task      186 on host ccs0076 reporting.
  Task      187 on host ccs0076 reporting.
  Task      188 on host ccs0076 reporting.
  Task      189 on host ccs0076 reporting.
  Task      190 on host ccs0076 reporting.
  Task      191 on host ccs0076 reporting.
  Task      192 on host ccs0076 reporting.
  Task      193 on host ccs0076 reporting.
  Task      194 on host ccs0076 reporting.
  Task      195 on host ccs0076 reporting.
  Task      196 on host ccs0076 reporting.
  Task      197 on host ccs0076 reporting.
  Task      198 on host ccs0076 reporting.
  Task      199 on host ccs0076 reporting.

  Obtaining array dimensions for all initial allocations:
  
  -----------------------------------------------------------------------
  Parsing control.in (first pass over file, find array dimensions only).
  The contents of control.in will be repeated verbatim below
  unless switched off by setting 'verbatim_writeout .false.' .
  in the first line of control.in .
  -----------------------------------------------------------------------
  
  #===============================================================================
  # FHI-aims file: ./control.in
  # Created using the Atomic Simulation Environment (ASE)
  # Wed Jul 17 19:17:11 2024
  #===============================================================================
  spin                               none
  relativistic                       atomic_zora scalar
  compute_forces                     .true.
  override_warning_libxc             true
  xc                                 libxc MGGA_X_MBEEF+GGA_C_PBE_SOL
  k_grid                             2 2 3
  occupation_type                    gaussian 0.1
  plus_u_petukhov_mixing             1
  plus_u_use_hydros                  True
  plus_u_matrix_control              True
  plus_u_matrix_release              0.001
  output                             dos -18 0 200 0.1
  output                             atom_proj_dos -18 0 200 0.1
  sc_accuracy_etot                   1e-06
  sc_accuracy_eev                    0.001
  sc_accuracy_rho                    1e-06
  sc_accuracy_forces                 0.0001
  #===============================================================================
  
  ################################################################################
  #
  #  FHI-aims code project
  #  VB, Fritz-Haber Institut, 2009
  #
  #  Suggested "light" defaults for Ti atom (to be pasted into control.in file)
  #  Be sure to double-check any results obtained with these settings for post-processing,
  #  e.g., with the "tight" defaults and larger basis sets.
  #
  ################################################################################
    species        Ti
  #     global species definitions
      nucleus             22
      mass                47.867
  #
      l_hartree           4
  #
      cut_pot             3.5          1.5  1.0
      basis_dep_cutoff    1e-4
  #
      radial_base         48 5.0
      radial_multiplier   1
      angular_grids       specified
        division   0.5171   50
        division   0.9824  110
        division   1.2917  194
        division   1.4940  302
  #      division   1.6934  434
  #      division   1.8425  590
  #      division   2.1901  770
  #      division   2.2896  974
  #      division   2.8244 1202
  #      outer_grid  974
        outer_grid  302
  ################################################################################
  #
  #  Definition of "minimal" basis
  #
  ################################################################################
  #     valence basis states
      valence      4  s   2.
      valence      3  p   6.
      valence      3  d   2.
  #     ion occupancy
      ion_occ      4  s   1.
      ion_occ      3  p   6.
      ion_occ      3  d   1.
  ################################################################################
  #
  #  Suggested additional basis functions. For production calculations,
  #  uncomment them one after another (the most important basis functions are
  #  listed first).
  #
  #  Constructed for dimers: 1.6 A, 1.85 A, 2.5 A, 3.25 A, 4.25 A
  #
  ################################################################################
  #  "First tier" - improvements: -396.25 meV to -19.41 meV
       hydro 4 f 8
       hydro 3 d 2.7
       ionic 4 p auto
  #     hydro 5 g 11.6
       ionic 4 s auto
  #  "Second tier" - improvements: -16.30 meV to -2.03 meV
  #     hydro 3 d 4.4
  #     hydro 6 h 16
  #     hydro 4 f 9.4
  #     hydro 4 p 4.5
  #     hydro 1 s 0.5
  #  "Third tier" - improvements: -6.28 meV to -0.37 meV
  #     hydro 4 d 6.4
  #     hydro 4 f 10
  #     hydro 5 g 12
  #     hydro 2 p 1.7
  #     hydro 6 h 16.4
  #     hydro 4 s 3.8
  #  Further basis functions: -0.45 meV and smaller improvements
  #     hydro 3 d 8.8
  #     hydro 5 p 18
  #     hydro 4 f 22.4
  #     hydro 5 f 7.2  # -0.16 meV
  #     hydro 3 d 2.1  # -0.11 meV
  #     hydro 5 g 7.4  # -0.09 meV
  plus_u 3 d 2.575
  hubbard_coefficient 0.752 -0.486 0 0
  ################################################################################
  #
  #  FHI-aims code project
  #  VB, Fritz-Haber Institut, 2009
  #
  #  Suggested "light" defaults for O atom (to be pasted into control.in file)
  #  Be sure to double-check any results obtained with these settings for post-processing,
  #  e.g., with the "tight" defaults and larger basis sets.
  #
  ################################################################################
    species        O
  #     global species definitions
      nucleus             8
      mass                15.9994
  #
      l_hartree           4
  #
      cut_pot             3.5  1.5  1.0
      basis_dep_cutoff    1e-4
  #
      radial_base         36 5.0
      radial_multiplier   1
       angular_grids specified
        division   0.2659   50
        division   0.4451  110
        division   0.6052  194
        division   0.7543  302
  #      division   0.8014  434
  #      division   0.8507  590
  #      division   0.8762  770
  #      division   0.9023  974
  #      division   1.2339 1202
  #      outer_grid 974
        outer_grid 302
  ################################################################################
  #
  #  Definition of "minimal" basis
  #
  ################################################################################
  #     valence basis states
      valence      2  s   2.
      valence      2  p   4.
  #     ion occupancy
      ion_occ      2  s   1.
      ion_occ      2  p   3.
  ################################################################################
  #
  #  Suggested additional basis functions. For production calculations,
  #  uncomment them one after another (the most important basis functions are
  #  listed first).
  #
  #  Constructed for dimers: 1.0 A, 1.208 A, 1.5 A, 2.0 A, 3.0 A
  #
  ################################################################################
  #  "First tier" - improvements: -699.05 meV to -159.38 meV
       hydro 2 p 1.8
       hydro 3 d 7.6
       hydro 3 s 6.4
  #  "Second tier" - improvements: -49.91 meV to -5.39 meV
  #     hydro 4 f 11.6
  #     hydro 3 p 6.2
  #     hydro 3 d 5.6
  #     hydro 5 g 17.6
  #     hydro 1 s 0.75
  #  "Third tier" - improvements: -2.83 meV to -0.50 meV
  #     ionic 2 p auto
  #     hydro 4 f 10.8
  #     hydro 4 d 4.7
  #     hydro 2 s 6.8
  #  "Fourth tier" - improvements: -0.40 meV to -0.12 meV
  #     hydro 3 p 5
  #     hydro 3 s 3.3
  #     hydro 5 g 15.6
  #     hydro 4 f 17.6
  #     hydro 4 d 14
  # Further basis functions - -0.08 meV and below
  #     hydro 3 s 2.1
  #     hydro 4 d 11.6
  #     hydro 3 p 16
  #     hydro 2 s 17.2################################################################################
  #
  #  FHI-aims code project
  #  VB, Fritz-Haber Institut, 2009
  #
  #  Suggested "light" defaults for Pt atom (to be pasted into control.in file)
  #  Be sure to double-check any results obtained with these settings for post-processing,
  #  e.g., with the "tight" defaults and larger basis sets.
  #
  ################################################################################
    species        Pt
  #     global species definitions
      nucleus             78
      mass                195.084
  #
      l_hartree           4
  #
      cut_pot             3.5  1.5  1.0
      basis_dep_cutoff    1e-4
  #
      radial_base         72 5.0
      radial_multiplier   1
      angular_grids specified
        division   0.4222   50
        division   0.9557  110
        division   1.2477  194
        division   1.5393  302
  #      division   1.9382  434
  #      division   2.0887  590
  #      division   2.1534  770
  #      division   2.2208  974
  #      division   2.6985 1202
  #      outer_grid    974
        outer_grid    302
  ################################################################################
  #
  #  Definition of "minimal" basis
  #
  ################################################################################
  #     valence basis states
      valence      6  s   1.
      valence      5  p   6.
      valence      5  d   9.
      valence      4  f  14.
  #     ion occupancy
      ion_occ     6  s   0.
      ion_occ     5  p   6.
      ion_occ     5  d   8.
      ion_occ     4  f   14.
  ################################################################################
  #
  #  Suggested additional basis functions. For production calculations,
  #  uncomment them one after another (the most important basis functions are
  #  listed first).
  #
  #  Constructed for dimers: 2.00, 2.275, 2.75, 3.75 AA
  #
  ################################################################################
  #  "First tier" - max. impr. -193.66  meV, min. impr. -18.25 meV
       hydro 4 f 7.4
       ionic 6 p auto
  #     hydro 5 g 9.8
       ionic 6 s auto
       hydro 3 d 2.6
  #  "Second tier" - max. impr. -10.25  meV, min. impr. -0.56 meV
  #     hydro 6 h 14
  #     hydro 5 f 14
  #     hydro 4 d 4
  #     hydro 3 p 3.3
  #     hydro 5 g 16.4
  #     hydro 1 s 0.5
  #  "Third tier" - max. impr. -0.72  meV, min. impr. -0.18 meV
  #     hydro 5 f 9
  #     ionic 5 d auto
  #     hydro 6 h 16.4
  #     hydro 5 g 12.4
  #     hydro 5 g 34
  #     hydro 5 s 13.6
  #     hydro 5 p 10.4
  #  Further functions:
  plus_u 5 d 0
  hubbard_coefficient 1 0 0 0
  
  -----------------------------------------------------------------------
  Completed first pass over input file control.in .
  -----------------------------------------------------------------------
  
  
  -----------------------------------------------------------------------
  Parsing geometry.in (first pass over file, find array dimensions only).
  The contents of geometry.in will be repeated verbatim below
  unless switched off by setting 'verbatim_writeout .false.' .
  in the first line of geometry.in .
  -----------------------------------------------------------------------
  
  #=======================================================
  # FHI-aims file: ./geometry.in
  # Created using the Atomic Simulation Environment (ASE)
  # Wed Jul 17 19:17:11 2024
  #=======================================================
  lattice_vector 13.7870999999999988 0.0000000000000000 0.0000000000000000
  lattice_vector 0.0000000000000000 13.7870999999999988 0.0000000000000000
  lattice_vector 0.0000000000000000 0.0000000000000000 8.8766999999999996
  atom_frac 0.1653806683613779 0.1653807148169018 0.1679368823004359 Ti
  atom_frac 0.0000015591514554 0.0000016406166297 -0.0000000163785354 Ti
  atom_frac 0.0646371174551172 0.2683891524456217 0.1666830962079840 O
  atom_frac 0.2683873763890933 0.0646350461296080 0.1666831236521798 O
  atom_frac 0.1015771594141334 0.1015789945548864 0.0000000078221929 O
  atom_frac 0.2311322859832369 0.2311301078748949 -0.0000000024090485 O
  atom_frac 0.1682730906993519 0.1682739251561369 0.5000000607260696 Ti
  atom_frac 0.0000000557700748 0.0000000478200312 0.3371063786175337 Ti
  atom_frac 0.0649069411660188 0.2681942437341192 0.5000000033209578 O
  atom_frac 0.2681925824383918 0.0649048537249039 0.5000000050902406 O
  atom_frac 0.1017198318065822 0.1017215400958102 0.3328821161518653 O
  atom_frac 0.2308656847679996 0.2308636575207456 0.3330956623912033 O
  atom_frac 0.1653807217772060 0.1653807687655339 0.8320631273825797 Ti
  atom_frac 0.0000000370355652 0.0000000483152972 0.6628937478189023 Ti
  atom_frac 0.0646371182772927 0.2683891566962998 0.8333169209865819 O
  atom_frac 0.2683873831855926 0.0646350500220633 0.8333168912984718 O
  atom_frac 0.1017198412493554 0.1017215463807577 0.6671178880456108 O
  atom_frac 0.2308656866308682 0.2308636615972185 0.6669043342814671 O
  atom_frac 0.1698666267007027 0.4990120703337556 0.1685512078204916 Ti
  atom_frac 0.0001541103624179 0.3394293044142963 0.0000000117595249 Ti
  atom_frac 0.0644992796390332 0.6022010869407197 0.1671235902772375 O
  atom_frac 0.2681739496991589 0.3979035782119305 0.1657453899559544 O
  atom_frac 0.1014316893739650 0.4356134009668838 -0.0000000045041407 O
  atom_frac 0.2311941169186782 0.5650595870732505 0.0000000018689005 O
  atom_frac 0.1603662419718178 0.5021649248050217 0.5000000052528065 Ti
  atom_frac 0.0001834899030497 0.3302745939554551 0.3308986689728990 Ti
  atom_frac 0.0644367541678365 0.6018563769777636 0.5000000103666521 O
  atom_frac 0.2691395378254303 0.3975833376512338 0.4999999782681305 O
  atom_frac 0.1021105853291813 0.4351399802805617 0.3333646149893267 O
  atom_frac 0.2311629413912364 0.5646139518848482 0.3330299101442078 O
  atom_frac 0.1698666602062937 0.4990120501321519 0.8314488091065616 Ti
  atom_frac 0.0001834837400232 0.3302746157459645 0.6691013722195998 Ti
  atom_frac 0.0644992856147448 0.6022010961983169 0.8328764232435405 O
  atom_frac 0.2681739701502029 0.3979035933479088 0.8342545639920573 O
  atom_frac 0.1021105862347420 0.4351399805534600 0.6666353991263484 O
  atom_frac 0.2311629583301157 0.5646139453061790 0.6669700821729843 O
  atom_frac 0.1647139753065508 0.8352864622385975 0.1637842671610028 Ti
  atom_frac -0.0001535813638852 0.6605712366184322 0.0000000131400949 Ti
  atom_frac 0.0648034516685216 0.9351981915411534 0.1663489473282232 O
  atom_frac 0.2686640082445522 0.7313337080914877 0.1670664751077478 O
  atom_frac 0.1023961650088905 0.7688590672325714 0.0000000070486034 O
  atom_frac 0.2311422639119166 0.8976014804988257 0.0000000055966430 O
  atom_frac 0.1704293708248878 0.8295695723111224 0.5000000388229198 Ti
  atom_frac -0.0001824968840248 0.6697265011424407 0.3308987555763604 Ti
  atom_frac 0.0644936329244946 0.9355078682874181 0.5000000136270100 O
  atom_frac 0.2693815907506955 0.7306160373603150 0.4999999944001575 O
  atom_frac 0.1019265722150935 0.7685565850473152 0.3338899925171693 O
  atom_frac 0.2314449721527048 0.8980711423182256 0.3338900008885786 O
  atom_frac 0.1647140429184440 0.8352864220260485 0.8362157633165335 Ti
  atom_frac -0.0001824881130948 0.6697264725061342 0.6691012943211846 Ti
  atom_frac 0.0648034483778954 0.9351981920130171 0.8336510636581230 O
  atom_frac 0.2686640167429112 0.7313337000111387 0.8329334930238955 O
  atom_frac 0.1019265738472050 0.7685565839915774 0.6661100220417011 O
  atom_frac 0.2314449731445366 0.8980711407348787 0.6661100160755346 O
  atom_frac 0.4990130008579834 0.1698649157469474 0.1685531882724034 Ti
  atom_frac 0.3394294802371184 0.0001555763364336 0.0000000151754366 Ti
  atom_frac 0.3979056172951460 0.2681756315022567 0.1657452697255270 O
  atom_frac 0.6021991200788447 0.0644976442750207 0.1671233310528622 O
  atom_frac 0.4356115445568505 0.1014334391340103 -0.0000000030128729 O
  atom_frac 0.5650618129957300 0.2311924211858994 0.0000000012745252 O
  atom_frac 0.5021645021033070 0.1603670768961729 0.5000000018184997 Ti
  atom_frac 0.3302732330019952 0.0001821966824069 0.3308996944175485 Ti
  atom_frac 0.3975852521883669 0.2691411828059973 0.4999999801399339 O
  atom_frac 0.6018545754141239 0.0644349473505487 0.5000000123502015 O
  atom_frac 0.4351384087426195 0.1021125749780243 0.3333642668175424 O
  atom_frac 0.5646159284786907 0.2311612640525292 0.3330300280627854 O
  atom_frac 0.4990129937544017 0.1698649543435027 0.8314468430526341 Ti
  atom_frac 0.3302732757743637 0.0001822103360007 0.6691003559946609 Ti
  atom_frac 0.3979056312352833 0.2681756490417221 0.8342546905115864 O
  atom_frac 0.6021991252096077 0.0644976472647995 0.8328766802944012 O
  atom_frac 0.4351384072859226 0.1021125759820779 0.6666357465068740 O
  atom_frac 0.5646159222920195 0.2311612800742384 0.6669699676546913 O
  atom_frac 0.5000003830656952 0.5000004489893857 0.1623255287363458 Ti
  atom_frac 0.3299998121676049 0.3299975310653792 0.0000000130450914 Ti
  atom_frac 0.3977944821743486 0.6022069405457906 0.1663847819559370 O
  atom_frac 0.6022052898074798 0.3977927967731913 0.1663847799950024 O
  atom_frac 0.4353484160656520 0.4353502296425049 -0.0000000731510632 O
  atom_frac 0.5646509233618011 0.5646491064990875 -0.0000000736851889 O
  atom_frac 0.4999993448687780 0.4999994396475906 0.4999997388154531 Pt
  atom_frac 0.3340084567046502 0.3340086188506040 0.3375554227276912 Ti
  atom_frac 0.3981918694413699 0.6018086595361685 0.4999999125717598 O
  atom_frac 0.6018072994806537 0.3981905135025087 0.4999999154052510 O
  atom_frac 0.4340029711293653 0.4340045976592568 0.3282681363335345 O
  atom_frac 0.5659963234177028 0.5659946440001146 0.3282687005267267 O
  atom_frac 0.5000003755252674 0.5000004288025048 0.8376744869961470 Ti
  atom_frac 0.3340085645486402 0.3340087227018952 0.6624445242153284 Ti
  atom_frac 0.3977944988181927 0.6022069252959298 0.8336151697406733 O
  atom_frac 0.6022052733188596 0.3977928129757928 0.8336151710005281 O
  atom_frac 0.4340030114275508 0.4340046395434728 0.6717315807257518 O
  atom_frac 0.5659962788990929 0.5659946021550827 0.6717310178675427 O
  atom_frac 0.5009875431861146 0.8301355599714632 0.1685533895944270 Ti
  atom_frac 0.3308385242580022 0.6691649564530640 0.0000001058241390 Ti
  atom_frac 0.3978006489383228 0.9355020600779101 0.1671234209387980 O
  atom_frac 0.6020940305761221 0.7318239430133028 0.1657454237734030 O
  atom_frac 0.4349377723511286 0.7688073086943823 0.0000000053910464 O
  atom_frac 0.5643882645526019 0.8985661104036777 -0.0000000019403946 O
  atom_frac 0.4978359350441795 0.8396332431657428 0.5000000077989344 Ti
  atom_frac 0.3344442572647268 0.6655556084544066 0.3301177582717558 Ti
  atom_frac 0.3981451626181093 0.9355647582607425 0.5000000100749373 O
  atom_frac 0.6024144425937000 0.7308584694869620 0.4999999790296035 O
  atom_frac 0.4353837890966741 0.7688382477785046 0.3330300304234841 O
  atom_frac 0.5648611757805809 0.8978870440750526 0.3333641653756619 O
  atom_frac 0.5009875590655966 0.8301355287853731 0.8314466295986404 Ti
  atom_frac 0.3344442910451257 0.6655555720237559 0.6698823810678263 Ti
  atom_frac 0.3978006415252475 0.9355020552811183 0.8328765911529774 O
  atom_frac 0.6020940153107162 0.7318239232338164 0.8342545384318096 O
  atom_frac 0.4353837954414568 0.7688382310139451 0.6669699642355689 O
  atom_frac 0.5648611750176609 0.8978870424418421 0.6666358510011399 O
  atom_frac 0.8352861389286191 0.1647137587650440 0.1637842672505533 Ti
  atom_frac 0.6605710588367780 -0.0001550573509030 0.0000000120530631 Ti
  atom_frac 0.7313357084136765 0.2686659968521680 0.1670664666109339 O
  atom_frac 0.9351963477140399 0.0648016121766695 0.1663489377337491 O
  atom_frac 0.7688573835211976 0.1023981768415621 0.0000000026394659 O
  atom_frac 0.8976035017731967 0.2311405678129969 0.0000000055619833 O
  atom_frac 0.8295717915503694 0.1704315760459897 0.5000000309483188 Ti
  atom_frac 0.6697278544656851 -0.0001812070896348 0.3308997540541853 Ti
  atom_frac 0.7306182438667569 0.2693837585395784 0.4999999962178596 O
  atom_frac 0.9355062215733423 0.0644919922058719 0.5000000103132217 O
  atom_frac 0.7685547812701552 0.1019285099499881 0.3338900200671949 O
  atom_frac 0.8980730893433769 0.2314431705161073 0.3338899538938159 O
  atom_frac 0.8352860727292472 0.1647138281945989 0.8362157773317371 Ti
  atom_frac 0.6697278324462158 -0.0001811998148773 0.6691002986391950 Ti
  atom_frac 0.7313357019681319 0.2686660061956997 0.8329335006874272 O
  atom_frac 0.9351963522486794 0.0648016104118297 0.8336510705397068 O
  atom_frac 0.7685547798761813 0.1019285122686968 0.6661099983133802 O
  atom_frac 0.8980730891596985 0.2314431723039617 0.6661100611585405 O
  atom_frac 0.8301338420312531 0.5009884991224715 0.1685514082278858 Ti
  atom_frac 0.6691624673541571 0.3308362191709192 0.0000001150622264 Ti
  atom_frac 0.7318256436355918 0.6020960676062663 0.1657455344954570 O
  atom_frac 0.9355004410601627 0.3977986761858881 0.1671236708196874 O
  atom_frac 0.7688056186527203 0.4349400122634324 0.0000000026492163 O
  atom_frac 0.8985678810882433 0.5643863920586294 -0.0000000044444853 O
  atom_frac 0.8396340903706397 0.4978354917742376 0.5000000081849607 Ti
  atom_frac 0.6655565241265567 0.3344451443399600 0.3301177511491368 Ti
  atom_frac 0.7308601524406575 0.6024163509679502 0.4999999824000231 O
  atom_frac 0.9355629614430353 0.3981433559399298 0.5000000096447295 O
  atom_frac 0.7688365969992274 0.4353857421881783 0.3330298964390053 O
  atom_frac 0.8978890463340565 0.5648596084312779 0.3333645057968636 O
  atom_frac 0.8301338135048959 0.5009885085639356 0.8314486119955024 Ti
  atom_frac 0.6655564885246152 0.3344451737628719 0.6698823821019266 Ti
  atom_frac 0.7318256226230070 0.6020960530502369 0.8342544262791936 O
  atom_frac 0.9355004339330193 0.3977986680172302 0.8328763382855179 O
  atom_frac 0.7688365783831447 0.4353857499955994 0.6669701001912955 O
  atom_frac 0.8978890465937296 0.5648596059575324 0.6666355082720885 O
  atom_frac 0.8346211862607992 0.8346211345523634 0.1679367204779743 Ti
  atom_frac 0.6700024758395187 0.6700047947011433 0.0000000147354871 Ti
  atom_frac 0.7316124817329147 0.9353647744254008 0.1666831393187763 O
  atom_frac 0.9353627099297502 0.7316106955286913 0.1666831001144232 O
  atom_frac 0.7688674586607424 0.7688696467148816 -0.0000000047859811 O
  atom_frac 0.8984226013634844 0.8984207629727420 0.0000000075238416 O
  atom_frac 0.8317250008388298 0.8317241854503065 0.5000000634938425 Ti
  atom_frac 0.6659915587517866 0.6659913696290916 0.3375553191681648 Ti
  atom_frac 0.7318070133905168 0.9350947591053334 0.5000000049530740 O
  atom_frac 0.9350926833646801 0.7318053396304620 0.5000000052409003 O
  atom_frac 0.7691338902146763 0.7691359068687733 0.3330956246239505 O
  atom_frac 0.8982798973727013 0.8982781839100824 0.3328822310228839 O
  atom_frac 0.8346211163232788 0.8346210561532474 0.8320632931224641 Ti
  atom_frac 0.6659914348213136 0.6659912409298898 0.6624446415111219 Ti
  atom_frac 0.7316124773744861 0.9353647733792889 0.8333168787736777 O
  atom_frac 0.9353627071472118 0.7316106867491721 0.8333169152555936 O
  atom_frac 0.7691338874248070 0.7691359048165956 0.6669043777929194 O
  atom_frac 0.8982798902176425 0.8982781764528317 0.6671177761255487 O
  
  -----------------------------------------------------------------------
  Completed first pass over input file geometry.in .
  -----------------------------------------------------------------------
  

  Basic array size parameters:
  | Number of species                 :        3
  | Number of atoms                   :      162
  | Number of lattice vectors         :        3
  | Max. basis fn. angular momentum   :        3
  | Max. atomic/ionic basis occupied n:        6
  | Max. number of basis fn. types    :        3
  | Max. radial fns per species/type  :       14
  | Max. logarithmic grid size        :     1487
  | Max. radial integration grid size :       72
  | Max. angular integration grid size:      302
  | Max. angular grid division number :        8
  | Radial grid for Hartree potential :     1487
  | Number of spin channels           :        1
  | Max. number of (n,l) shells per species with '+U' treatment:        1

------------------------------------------------------------
          Reading file control.in.
------------------------------------------------------------
  Spin treatment: No spin polarisation.
  Scalar relativistic treatment of kinetic energy: on-site free-atom approximation to ZORA.
  Forces will be computed.
  XC: Using LibXC. Please refer to LibXC output for further details.
  Using libxc - Initializing
  Libxc version: 6.1.0


  ** PLEASE ** be careful using LibXC. Whilst most of the LDA, GGA and MGGA functionals,
  and hybrid variations therein, should be stable (though we always recommend testing!),
  there are several fancy functionals with e.g. range-separation, like HSE03/HSE06/LC-PBEh,
  and also MGGA functionals that depend on the laplacian of the density, like BR89,
  that are not fully implemented due to the infrastrucutre for these functionals being incomplete or non-generic.
  If you want to use these functionals please contact the development team and we will work on them with you!

  You have selected libxc functional MGGA_X_MBEEF (249)
    - Description: mBEEF exchange
    - Type: MGGA(Exchange)
    - Reference to Literature:
      [1] J. Wellendorff, K. T. Lundgaard, K. W. Jacobsen, and T. Bligaard.,  J. Chem. Phys. 140, 144107 (2014)

  You have selected libxc functional GGA_C_PBE_SOL (133)
    - Description: Perdew, Burke & Ernzerhof SOL
    - Type: GGA(Correlation)
    - Reference to Literature:
      [1] J. P. Perdew, A. Ruzsinszky, G. I. Csonka, O. A. Vydrov, G. E. Scuseria, L. A. Constantin, X. Zhou, and K. Burke.,  Phys. Rev. Lett. 100, 136406 (2008)

  Switching on meta-ggas
  Found k-point grid:         2         2         3
  Occupation type: Gaussian broadening, width =   0.100000E+00 eV.
  Fixing petukhov mixing factor to   1.000000000000
  hydrogenic basis funktions also used for DFT+U reference states
  Reading DFT+U occupation matrix, from file
  Reading DFT+U occupation matrix, from file
  DFT+U occupation matrix, is again calculated if total energy is converged within   0.001000000000
  Calculating density of states with
  | energy interval :-18.000000  0.000000
  | points & broadening :   200  0.100000
  Calculating atom-projected density of states with
  | energy interval :-18.000000  0.000000
  | points & broadening :   200  0.100000
  Convergence accuracy of total energy:  0.1000E-05
  Convergence accuracy of sum of eigenvalues:  0.1000E-02
  Convergence accuracy of self-consistent charge density:  0.1000E-05
  Convergence accuracy of forces:  0.1000E-03
 
  Reading configuration options for species Ti                  .
  | Found nuclear charge :  22.0000
  | Found atomic mass :    47.8670000000000      amu
  | Found l_max for Hartree potential  :   4
  | Found cutoff potl. onset [A], width [A], scale factor :    3.50000    1.50000    1.00000
  | Threshold for basis-dependent cutoff potential is   0.100000E-03
  | Found data for basic radial integration grid :    48 points, outermost radius =    5.000 A
  | Found multiplier for basic radial grid :   1
  | Found angular grid specification: user-specified.
  | Specified grid contains     5 separate shells.
  | Check grid settings after all constraints further below.
  | Found free-atom valence shell :  4 s   2.000
  | Found free-atom valence shell :  3 p   6.000
  | Found free-atom valence shell :  3 d   2.000
  | Found free-ion valence shell :  4 s   1.000
  | Found free-ion valence shell :  3 p   6.000
  | Found free-ion valence shell :  3 d   1.000
  | Found hydrogenic basis function :  4 f   8.000
  | Found hydrogenic basis function :  3 d   2.700
  | Found ionic basis function :  4 p , default cutoff radius.
  | Found ionic basis function :  4 s , default cutoff radius.
  | Found request for '+U' treatment for  3 d shell, U =     2.575000 eV.
  | Found coefficents for linear combination of hubbard projectors 
  Species Ti                  : Missing cutoff potential type.
  Defaulting to exp(1/x)/(1-x)^2 type cutoff potential.
  Species Ti: No 'logarithmic' tag. Using default grid for free atom:
  | Default logarithmic grid data [bohr] : 0.1000E-03 0.1000E+03 0.1012E+01
  | Will include ionic basis functions of  2.0-fold positive Ti                   ion.
  Species Ti: On-site basis accuracy parameter (for Gram-Schmidt orthonormalisation) not specified.
  Using default value basis_acc =  0.1000000E-03.
  Species Ti                  : Using default innermost maximum threshold i_radial=  2 for radial functions.
  Species Ti                  : Default cutoff onset for free atom density etc. : 0.35000000E+01 AA.
  Species Ti                  : Basic radial grid will be enhanced according to radial_multiplier =   1, to contain    48 grid points.
 
  Reading configuration options for species O                   .
  | Found nuclear charge :   8.0000
  | Found atomic mass :    15.9994000000000      amu
  | Found l_max for Hartree potential  :   4
  | Found cutoff potl. onset [A], width [A], scale factor :    3.50000    1.50000    1.00000
  | Threshold for basis-dependent cutoff potential is   0.100000E-03
  | Found data for basic radial integration grid :    36 points, outermost radius =    5.000 A
  | Found multiplier for basic radial grid :   1
  | Found angular grid specification: user-specified.
  | Specified grid contains     5 separate shells.
  | Check grid settings after all constraints further below.
  | Found free-atom valence shell :  2 s   2.000
  | Found free-atom valence shell :  2 p   4.000
  | Found free-ion valence shell :  2 s   1.000
  | Found free-ion valence shell :  2 p   3.000
  | Found hydrogenic basis function :  2 p   1.800
  | Found hydrogenic basis function :  3 d   7.600
  | Found hydrogenic basis function :  3 s   6.400
  Species O                   : Missing cutoff potential type.
  Defaulting to exp(1/x)/(1-x)^2 type cutoff potential.
  Species O : No 'logarithmic' tag. Using default grid for free atom:
  | Default logarithmic grid data [bohr] : 0.1000E-03 0.1000E+03 0.1012E+01
  Species O : On-site basis accuracy parameter (for Gram-Schmidt orthonormalisation) not specified.
  Using default value basis_acc =  0.1000000E-03.
  Species O                   : Using default innermost maximum threshold i_radial=  2 for radial functions.
  Species O                   : Default cutoff onset for free atom density etc. : 0.35000000E+01 AA.
  Species O                   : Basic radial grid will be enhanced according to radial_multiplier =   1, to contain    36 grid points.
 
  Reading configuration options for species Pt                  .
  | Found nuclear charge :  78.0000
  | Found atomic mass :    195.084000000000      amu
  | Found l_max for Hartree potential  :   4
  | Found cutoff potl. onset [A], width [A], scale factor :    3.50000    1.50000    1.00000
  | Threshold for basis-dependent cutoff potential is   0.100000E-03
  | Found data for basic radial integration grid :    72 points, outermost radius =    5.000 A
  | Found multiplier for basic radial grid :   1
  | Found angular grid specification: user-specified.
  | Specified grid contains     5 separate shells.
  | Check grid settings after all constraints further below.
  | Found free-atom valence shell :  6 s   1.000
  | Found free-atom valence shell :  5 p   6.000
  | Found free-atom valence shell :  5 d   9.000
  | Found free-atom valence shell :  4 f  14.000
  | Found free-ion valence shell :  6 s   0.000
  | Found free-ion valence shell :  5 p   6.000
  | Found free-ion valence shell :  5 d   8.000
  | Found free-ion valence shell :  4 f  14.000
  | Found hydrogenic basis function :  4 f   7.400
  | Found ionic basis function :  6 p , default cutoff radius.
  | Found ionic basis function :  6 s , default cutoff radius.
  | Found hydrogenic basis function :  3 d   2.600
  | Found request for '+U' treatment for  5 d shell, U =     0.000000 eV.
  | Found coefficents for linear combination of hubbard projectors 
  Species Pt                  : Missing cutoff potential type.
  Defaulting to exp(1/x)/(1-x)^2 type cutoff potential.
  Species Pt: No 'logarithmic' tag. Using default grid for free atom:
  | Default logarithmic grid data [bohr] : 0.1000E-03 0.1000E+03 0.1012E+01
  | Will include ionic basis functions of  2.0-fold positive Pt                   ion.
  Species Pt: On-site basis accuracy parameter (for Gram-Schmidt orthonormalisation) not specified.
  Using default value basis_acc =  0.1000000E-03.
  Species Pt                  : Using default innermost maximum threshold i_radial=  2 for radial functions.
  Species Pt                  : Default cutoff onset for free atom density etc. : 0.35000000E+01 AA.
  Species Pt                  : Basic radial grid will be enhanced according to radial_multiplier =   1, to contain    72 grid points.
 
  Finished reading input file 'control.in'.
 
------------------------------------------------------------


------------------------------------------------------------
          Reading geometry description geometry.in.
------------------------------------------------------------
  | The smallest distance between any two atoms is         1.90737088 AA.
  | The first atom of this pair is atom number                     87 .
  | The second atom of this pair is atom number                   104 .
  | Wigner-Seitz cell of the first atom image           0     0     0 .
  | (The Wigner-Seitz cell of the second atom is 0 0 0  by definition.)

  Symmetry information by spglib:
  | Precision set to  0.1E-04
  | Number of Operations  : 1
  | Space group           : 1
  | International         : P1      Sei
  | Schoenflies           : C1^1
  Input structure read successfully.
  The structure contains      162 atoms,  and a total of       2108.000 electrons.

  Input geometry:
  | Unit cell:
  |       13.78710000        0.00000000        0.00000000
  |        0.00000000       13.78710000        0.00000000
  |        0.00000000        0.00000000        8.87670000
  | Atomic structure:
  |       Atom                x [A]            y [A]            z [A]
  |    1: Species Ti            2.28011981        2.28012045        1.49072532
  |    2: Species Ti            0.00002150        0.00002262       -0.00000015
  |    3: Species O             0.89115840        3.70030808        1.47959584
  |    4: Species O             3.70028360        0.89112984        1.47959608
  |    5: Species O             1.40045445        1.40047976        0.00000007
  |    6: Species O             3.18664394        3.18661391       -0.00000002
  |    7: Species Ti            2.31999793        2.32000943        4.43835054
  |    8: Species Ti            0.00000077        0.00000066        2.99239219
  |    9: Species O             0.89487849        3.69762086        4.43835003
  |   10: Species O             3.69759795        0.89484971        4.43835005
  |   11: Species O             1.40242149        1.40244505        2.95489468
  |   12: Species O             3.18296828        3.18294033        2.95679027
  |   13: Species Ti            2.28012055        2.28012120        7.38597476
  |   14: Species Ti            0.00000051        0.00000067        5.88430893
  |   15: Species O             0.89115841        3.70030814        7.39710431
  |   16: Species O             3.70028369        0.89112990        7.39710405
  |   17: Species O             1.40242162        1.40244513        5.92180536
  |   18: Species O             3.18296831        3.18294039        5.91990970
  |   19: Species Ti            2.34196817        6.87992931        1.49617851
  |   20: Species Ti            0.00212473        4.67974576        0.00000010
  |   21: Species O             0.88925802        8.30260661        1.48350597
  |   22: Species O             3.69734106        5.48593642        1.47127210
  |   23: Species O             1.39844884        6.00584552       -0.00000004
  |   24: Species O             3.18749641        7.79053303        0.00000002
  |   25: Species Ti            2.21098541        6.92339803        4.43835005
  |   26: Species Ti            0.00252979        4.55352885        2.93728821
  |   27: Species O             0.88839597        8.29785406        4.43835009
  |   28: Species O             3.71065372        5.48152123        4.43834981
  |   29: Species O             1.40780885        5.99931842        2.95917768
  |   30: Species O             3.18706659        7.78438902        2.95620660
  |   31: Species Ti            2.34196863        6.87992904        7.38052164
  |   32: Species Ti            0.00252971        4.55352915        5.93941215
  |   33: Species O             0.88925810        8.30260673        7.39319415
  |   34: Species O             3.69734134        5.48593663        7.40542749
  |   35: Species O             1.40780886        5.99931843        5.91752245
  |   36: Species O             3.18706682        7.78438893        5.92049333
  |   37: Species Ti            2.27092805       11.51617798        1.45386380
  |   38: Species Ti           -0.00211744        9.10736170        0.00000012
  |   39: Species O             0.89345167       12.89367099        1.47662970
  |   40: Species O             3.70409755       10.08297097        1.48299898
  |   41: Species O             1.41174617       10.60033685        0.00000006
  |   42: Species O             3.18678151       12.37532137        0.00000005
  |   43: Species Ti            2.34972678       11.43735865        4.43835034
  |   44: Species Ti           -0.00251610        9.23358624        2.93728898
  |   45: Species O             0.88918017       12.89794053        4.43835012
  |   46: Species O             3.71399093       10.07307637        4.43834995
  |   47: Species O             1.40527184       10.59616649        2.96384130
  |   48: Species O             3.19095498       12.38179665        2.96384137
  |   49: Species Ti            2.27092898       11.51617743        7.42283647
  |   50: Species Ti           -0.00251598        9.23358585        5.93941146
  |   51: Species O             0.89345162       12.89367099        7.40007040
  |   52: Species O             3.70409767       10.08297086        7.39370074
  |   53: Species O             1.40527187       10.59616648        5.91285883
  |   54: Species O             3.19095499       12.38179662        5.91285878
  |   55: Species Ti            6.87994214        2.34194458        1.49619609
  |   56: Species Ti            4.67974819        0.00214495        0.00000013
  |   57: Species O             5.48596454        3.69736425        1.47127104
  |   58: Species O             8.30257949        0.88923547        1.48350367
  |   59: Species O             6.00581993        1.39847297       -0.00000003
  |   60: Species O             7.79056372        3.18747303        0.00000001
  |   61: Species Ti            6.92339221        2.21099693        4.43835002
  |   62: Species Ti            4.55351009        0.00251196        2.93729732
  |   63: Species O             5.48154763        3.71067640        4.43834982
  |   64: Species O             8.29782922        0.88837106        4.43835011
  |   65: Species O             5.99929676        1.40783628        2.95917459
  |   66: Species O             7.78441627        3.18704346        2.95620765
  |   67: Species Ti            6.87994205        2.34194511        7.38050419
  |   68: Species Ti            4.55351068        0.00251215        5.93940313
  |   69: Species O             5.48596473        3.69736449        7.40542861
  |   70: Species O             8.30257956        0.88923551        7.39319643
  |   71: Species O             5.99929674        1.40783630        5.91752553
  |   72: Species O             7.78441618        3.18704368        5.92049231
  |   73: Species Ti            6.89355528        6.89355619        1.44091502
  |   74: Species Ti            4.54974041        4.54970896        0.00000012
  |   75: Species O             5.48443231        8.30268731        1.47694779
  |   76: Species O             8.30266455        5.48440907        1.47694778
  |   77: Species O             6.00219215        6.00221715       -0.00000065
  |   78: Species O             7.78489875        7.78487370       -0.00000065
  |   79: Species Pt            6.89354097        6.89354227        4.43834768
  |   80: Species Ti            4.60500799        4.60501023        2.99637822
  |   81: Species O             5.48991112        8.29719617        4.43834922
  |   82: Species O             8.29717742        5.48989243        4.43834925
  |   83: Species O             5.98364236        5.98366479        2.91393777
  |   84: Species O             7.80344791        7.80342476        2.91394277
  |   85: Species Ti            6.89355518        6.89355591        7.43578512
  |   86: Species Ti            4.60500948        4.60501166        5.88032131
  |   87: Species O             5.48443253        8.30268710        7.39975178
  |   88: Species O             8.30266432        5.48440929        7.39975179
  |   89: Species O             5.98364292        5.98366537        5.96275972
  |   90: Species O             7.80344730        7.80342418        5.96275473
  |   91: Species Ti            6.90716536       11.44516198        1.49619787
  |   92: Species Ti            4.56130382        9.22584417        0.00000094
  |   93: Species O             5.48451733       12.89786045        1.48350447
  |   94: Species O             8.30113061       10.08972988        1.47127240
  |   95: Species O             5.99653056       10.59962325        0.00000005
  |   96: Species O             7.78127744       12.38862082       -0.00000002
  |   97: Species Ti            6.86371382       11.57610749        4.43835007
  |   98: Species Ti            4.61101642        9.17608173        2.93035630
  |   99: Species O             5.48926717       12.89872488        4.43835009
  |  100: Species O             8.30554816       10.07641880        4.43834981
  |  101: Species O             6.00267984       10.60004981        2.95620767
  |  102: Species O             7.78779752       12.37925847        2.95917369
  |  103: Species Ti            6.90716558       11.44516155        7.38050230
  |  104: Species Ti            4.61101689        9.17608123        5.94634493
  |  105: Species O             5.48451722       12.89786039        7.39319564
  |  106: Species O             8.30113040       10.08972961        7.40542726
  |  107: Species O             6.00267993       10.60004957        5.92049228
  |  108: Species O             7.78779751       12.37925844        5.91752646
  |  109: Species Ti           11.51617353        2.27092506        1.45386381
  |  110: Species Ti            9.10735925       -0.00213779        0.00000011
  |  111: Species O            10.08299855        3.70412497        1.48299890
  |  112: Species O            12.89364557        0.89342631        1.47662962
  |  113: Species O            10.60031363        1.41177390        0.00000002
  |  114: Species O            12.37534924        3.18675812        0.00000005
  |  115: Species Ti           11.43738925        2.34975718        4.43835027
  |  116: Species Ti            9.23360490       -0.00249832        2.93729785
  |  117: Species O            10.07310679        3.71402082        4.43834997
  |  118: Species O            12.89791783        0.88915755        4.43835009
  |  119: Species O            10.59614162        1.40529856        2.96384154
  |  120: Species O            12.38182349        3.19093014        2.96384095
  |  121: Species Ti           11.51617261        2.27092602        7.42283659
  |  122: Species Ti            9.23360460       -0.00249822        5.93940262
  |  123: Species O            10.08299846        3.70412509        7.39370081
  |  124: Species O            12.89364563        0.89342628        7.40007046
  |  125: Species O            10.59614161        1.40529859        5.91285862
  |  126: Species O            12.38182349        3.19093016        5.91285918
  |  127: Species Ti           11.44513829        6.90717854        1.49618029
  |  128: Species Ti            9.22580985        4.56127204        0.00000102
  |  129: Species O            10.08975333        8.30115869        1.47127339
  |  130: Species O            12.89783813        5.48449013        1.48350669
  |  131: Species O            10.59959994        5.99656144        0.00000002
  |  132: Species O            12.38864523        7.78125163       -0.00000004
  |  133: Species Ti           11.57611917        6.86370771        4.43835007
  |  134: Species Ti            9.17609435        4.61102865        2.93035624
  |  135: Species O            10.07644201        8.30557447        4.43834984
  |  136: Species O            12.89870011        5.48924226        4.43835009
  |  137: Species O            10.60002705        6.00270677        2.95620648
  |  138: Species O            12.37928607        7.78777591        2.95917671
  |  139: Species Ti           11.44513790        6.90717867        7.38051989
  |  140: Species Ti            9.17609386        4.61102906        5.94634494
  |  141: Species O            10.08975304        8.30115849        7.40542627
  |  142: Species O            12.89783803        5.48449002        7.39319339
  |  143: Species O            10.60002679        6.00270687        5.92049349
  |  144: Species O            12.37928607        7.78777587        5.91752342
  |  145: Species Ti           11.50700576       11.50700504        1.49072389
  |  146: Species Ti            9.23739113        9.23742311        0.00000013
  |  147: Species O            10.08681445       12.89596768        1.47959622
  |  148: Species O            12.89593922       10.08678982        1.47959587
  |  149: Species O            10.60045254       10.60048271       -0.00000004
  |  150: Species O            12.38664225       12.38661690        0.00000007
  |  151: Species Ti           11.46707576       11.46706452        4.43835056
  |  152: Species Ti            9.18209222        9.18208961        2.99637730
  |  153: Species O            10.08949647       12.89224495        4.43835004
  |  154: Species O            12.89221633       10.08947340        4.43835005
  |  155: Species O            10.60412586       10.60415366        2.95678993
  |  156: Species O            12.38467477       12.38465115        2.95489570
  |  157: Species Ti           11.50700479       11.50700396        7.38597623
  |  158: Species Ti            9.18209051        9.18208784        5.88032235
  |  159: Species O            10.08681439       12.89596767        7.39710394
  |  160: Species O            12.89593918       10.08678970        7.39710426
  |  161: Species O            10.60412582       10.60415363        5.91991009
  |  162: Species O            12.38467467       12.38465105        5.92180436

  Lattice parameters for 3D lattice (in Angstroms) :    13.787100   13.787100    8.876700
  Angle(s) between unit vectors (in degrees)       :    90.000000   90.000000   90.000000


  Quantities derived from the lattice vectors (in Angstrom^-1):
  | Reciprocal lattice vector 1:  0.455729  0.000000  0.000000
  | Reciprocal lattice vector 2:  0.000000  0.455729  0.000000
  | Reciprocal lattice vector 3:  0.000000  0.000000  0.707829
  | Unit cell volume                               :   0.168732E+04  Angstrom^3

  Fractional coordinates:
                         L1                L2                L3
       atom_frac         0.16538067        0.16538071        0.16793688  Ti
       atom_frac         0.00000156        0.00000164       -0.00000002  Ti
       atom_frac         0.06463712        0.26838915        0.16668310  O
       atom_frac         0.26838738        0.06463505        0.16668312  O
       atom_frac         0.10157716        0.10157899        0.00000001  O
       atom_frac         0.23113229        0.23113011       -0.00000000  O
       atom_frac         0.16827309        0.16827393        0.50000006  Ti
       atom_frac         0.00000006        0.00000005        0.33710638  Ti
       atom_frac         0.06490694        0.26819424        0.50000000  O
       atom_frac         0.26819258        0.06490485        0.50000001  O
       atom_frac         0.10171983        0.10172154        0.33288212  O
       atom_frac         0.23086568        0.23086366        0.33309566  O
       atom_frac         0.16538072        0.16538077        0.83206313  Ti
       atom_frac         0.00000004        0.00000005        0.66289375  Ti
       atom_frac         0.06463712        0.26838916        0.83331692  O
       atom_frac         0.26838738        0.06463505        0.83331689  O
       atom_frac         0.10171984        0.10172155        0.66711789  O
       atom_frac         0.23086569        0.23086366        0.66690433  O
       atom_frac         0.16986663        0.49901207        0.16855121  Ti
       atom_frac         0.00015411        0.33942930        0.00000001  Ti
       atom_frac         0.06449928        0.60220109        0.16712359  O
       atom_frac         0.26817395        0.39790358        0.16574539  O
       atom_frac         0.10143169        0.43561340       -0.00000000  O
       atom_frac         0.23119412        0.56505959        0.00000000  O
       atom_frac         0.16036624        0.50216492        0.50000001  Ti
       atom_frac         0.00018349        0.33027459        0.33089867  Ti
       atom_frac         0.06443675        0.60185638        0.50000001  O
       atom_frac         0.26913954        0.39758334        0.49999998  O
       atom_frac         0.10211059        0.43513998        0.33336461  O
       atom_frac         0.23116294        0.56461395        0.33302991  O
       atom_frac         0.16986666        0.49901205        0.83144881  Ti
       atom_frac         0.00018348        0.33027462        0.66910137  Ti
       atom_frac         0.06449929        0.60220110        0.83287642  O
       atom_frac         0.26817397        0.39790359        0.83425456  O
       atom_frac         0.10211059        0.43513998        0.66663540  O
       atom_frac         0.23116296        0.56461395        0.66697008  O
       atom_frac         0.16471398        0.83528646        0.16378427  Ti
       atom_frac        -0.00015358        0.66057124        0.00000001  Ti
       atom_frac         0.06480345        0.93519819        0.16634895  O
       atom_frac         0.26866401        0.73133371        0.16706648  O
       atom_frac         0.10239617        0.76885907        0.00000001  O
       atom_frac         0.23114226        0.89760148        0.00000001  O
       atom_frac         0.17042937        0.82956957        0.50000004  Ti
       atom_frac        -0.00018250        0.66972650        0.33089876  Ti
       atom_frac         0.06449363        0.93550787        0.50000001  O
       atom_frac         0.26938159        0.73061604        0.49999999  O
       atom_frac         0.10192657        0.76855659        0.33388999  O
       atom_frac         0.23144497        0.89807114        0.33389000  O
       atom_frac         0.16471404        0.83528642        0.83621576  Ti
       atom_frac        -0.00018249        0.66972647        0.66910129  Ti
       atom_frac         0.06480345        0.93519819        0.83365106  O
       atom_frac         0.26866402        0.73133370        0.83293349  O
       atom_frac         0.10192657        0.76855658        0.66611002  O
       atom_frac         0.23144497        0.89807114        0.66611002  O
       atom_frac         0.49901300        0.16986492        0.16855319  Ti
       atom_frac         0.33942948        0.00015558        0.00000002  Ti
       atom_frac         0.39790562        0.26817563        0.16574527  O
       atom_frac         0.60219912        0.06449764        0.16712333  O
       atom_frac         0.43561154        0.10143344       -0.00000000  O
       atom_frac         0.56506181        0.23119242        0.00000000  O
       atom_frac         0.50216450        0.16036708        0.50000000  Ti
       atom_frac         0.33027323        0.00018220        0.33089969  Ti
       atom_frac         0.39758525        0.26914118        0.49999998  O
       atom_frac         0.60185458        0.06443495        0.50000001  O
       atom_frac         0.43513841        0.10211257        0.33336427  O
       atom_frac         0.56461593        0.23116126        0.33303003  O
       atom_frac         0.49901299        0.16986495        0.83144684  Ti
       atom_frac         0.33027328        0.00018221        0.66910036  Ti
       atom_frac         0.39790563        0.26817565        0.83425469  O
       atom_frac         0.60219913        0.06449765        0.83287668  O
       atom_frac         0.43513841        0.10211258        0.66663575  O
       atom_frac         0.56461592        0.23116128        0.66696997  O
       atom_frac         0.50000038        0.50000045        0.16232553  Ti
       atom_frac         0.32999981        0.32999753        0.00000001  Ti
       atom_frac         0.39779448        0.60220694        0.16638478  O
       atom_frac         0.60220529        0.39779280        0.16638478  O
       atom_frac         0.43534842        0.43535023       -0.00000007  O
       atom_frac         0.56465092        0.56464911       -0.00000007  O
       atom_frac         0.49999934        0.49999944        0.49999974  Pt
       atom_frac         0.33400846        0.33400862        0.33755542  Ti
       atom_frac         0.39819187        0.60180866        0.49999991  O
       atom_frac         0.60180730        0.39819051        0.49999992  O
       atom_frac         0.43400297        0.43400460        0.32826814  O
       atom_frac         0.56599632        0.56599464        0.32826870  O
       atom_frac         0.50000038        0.50000043        0.83767449  Ti
       atom_frac         0.33400856        0.33400872        0.66244452  Ti
       atom_frac         0.39779450        0.60220693        0.83361517  O
       atom_frac         0.60220527        0.39779281        0.83361517  O
       atom_frac         0.43400301        0.43400464        0.67173158  O
       atom_frac         0.56599628        0.56599460        0.67173102  O
       atom_frac         0.50098754        0.83013556        0.16855339  Ti
       atom_frac         0.33083852        0.66916496        0.00000011  Ti
       atom_frac         0.39780065        0.93550206        0.16712342  O
       atom_frac         0.60209403        0.73182394        0.16574542  O
       atom_frac         0.43493777        0.76880731        0.00000001  O
       atom_frac         0.56438826        0.89856611       -0.00000000  O
       atom_frac         0.49783594        0.83963324        0.50000001  Ti
       atom_frac         0.33444426        0.66555561        0.33011776  Ti
       atom_frac         0.39814516        0.93556476        0.50000001  O
       atom_frac         0.60241444        0.73085847        0.49999998  O
       atom_frac         0.43538379        0.76883825        0.33303003  O
       atom_frac         0.56486118        0.89788704        0.33336417  O
       atom_frac         0.50098756        0.83013553        0.83144663  Ti
       atom_frac         0.33444429        0.66555557        0.66988238  Ti
       atom_frac         0.39780064        0.93550206        0.83287659  O
       atom_frac         0.60209402        0.73182392        0.83425454  O
       atom_frac         0.43538380        0.76883823        0.66696996  O
       atom_frac         0.56486118        0.89788704        0.66663585  O
       atom_frac         0.83528614        0.16471376        0.16378427  Ti
       atom_frac         0.66057106       -0.00015506        0.00000001  Ti
       atom_frac         0.73133571        0.26866600        0.16706647  O
       atom_frac         0.93519635        0.06480161        0.16634894  O
       atom_frac         0.76885738        0.10239818        0.00000000  O
       atom_frac         0.89760350        0.23114057        0.00000001  O
       atom_frac         0.82957179        0.17043158        0.50000003  Ti
       atom_frac         0.66972785       -0.00018121        0.33089975  Ti
       atom_frac         0.73061824        0.26938376        0.50000000  O
       atom_frac         0.93550622        0.06449199        0.50000001  O
       atom_frac         0.76855478        0.10192851        0.33389002  O
       atom_frac         0.89807309        0.23144317        0.33388995  O
       atom_frac         0.83528607        0.16471383        0.83621578  Ti
       atom_frac         0.66972783       -0.00018120        0.66910030  Ti
       atom_frac         0.73133570        0.26866601        0.83293350  O
       atom_frac         0.93519635        0.06480161        0.83365107  O
       atom_frac         0.76855478        0.10192851        0.66611000  O
       atom_frac         0.89807309        0.23144317        0.66611006  O
       atom_frac         0.83013384        0.50098850        0.16855141  Ti
       atom_frac         0.66916247        0.33083622        0.00000012  Ti
       atom_frac         0.73182564        0.60209607        0.16574553  O
       atom_frac         0.93550044        0.39779868        0.16712367  O
       atom_frac         0.76880562        0.43494001        0.00000000  O
       atom_frac         0.89856788        0.56438639       -0.00000000  O
       atom_frac         0.83963409        0.49783549        0.50000001  Ti
       atom_frac         0.66555652        0.33444514        0.33011775  Ti
       atom_frac         0.73086015        0.60241635        0.49999998  O
       atom_frac         0.93556296        0.39814336        0.50000001  O
       atom_frac         0.76883660        0.43538574        0.33302990  O
       atom_frac         0.89788905        0.56485961        0.33336451  O
       atom_frac         0.83013381        0.50098851        0.83144861  Ti
       atom_frac         0.66555649        0.33444517        0.66988238  Ti
       atom_frac         0.73182562        0.60209605        0.83425443  O
       atom_frac         0.93550043        0.39779867        0.83287634  O
       atom_frac         0.76883658        0.43538575        0.66697010  O
       atom_frac         0.89788905        0.56485961        0.66663551  O
       atom_frac         0.83462119        0.83462113        0.16793672  Ti
       atom_frac         0.67000248        0.67000479        0.00000001  Ti
       atom_frac         0.73161248        0.93536477        0.16668314  O
       atom_frac         0.93536271        0.73161070        0.16668310  O
       atom_frac         0.76886746        0.76886965       -0.00000000  O
       atom_frac         0.89842260        0.89842076        0.00000001  O
       atom_frac         0.83172500        0.83172419        0.50000006  Ti
       atom_frac         0.66599156        0.66599137        0.33755532  Ti
       atom_frac         0.73180701        0.93509476        0.50000000  O
       atom_frac         0.93509268        0.73180534        0.50000001  O
       atom_frac         0.76913389        0.76913591        0.33309562  O
       atom_frac         0.89827990        0.89827818        0.33288223  O
       atom_frac         0.83462112        0.83462106        0.83206329  Ti
       atom_frac         0.66599143        0.66599124        0.66244464  Ti
       atom_frac         0.73161248        0.93536477        0.83331688  O
       atom_frac         0.93536271        0.73161069        0.83331692  O
       atom_frac         0.76913389        0.76913590        0.66690438  O
       atom_frac         0.89827989        0.89827818        0.66711778  O

 
  Finished reading input file 'geometry.in'.
 

 
  Consistency checks for stacksize environment parameter are next.
 
  | Maximum stacksize for task 0: unlimited
  | Maximum stacksize for task 1: unlimited
  | Maximum stacksize for task 2: unlimited
  | Maximum stacksize for task 3: unlimited
  | Maximum stacksize for task 4: unlimited
  | Maximum stacksize for task 5: unlimited
  | Maximum stacksize for task 6: unlimited
  | Maximum stacksize for task 7: unlimited
  | Maximum stacksize for task 8: unlimited
  | Maximum stacksize for task 9: unlimited
  | Maximum stacksize for task 10: unlimited
  | Maximum stacksize for task 11: unlimited
  | Maximum stacksize for task 12: unlimited
  | Maximum stacksize for task 13: unlimited
  | Maximum stacksize for task 14: unlimited
  | Maximum stacksize for task 15: unlimited
  | Maximum stacksize for task 16: unlimited
  | Maximum stacksize for task 17: unlimited
  | Maximum stacksize for task 18: unlimited
  | Maximum stacksize for task 19: unlimited
  | Maximum stacksize for task 20: unlimited
  | Maximum stacksize for task 21: unlimited
  | Maximum stacksize for task 22: unlimited
  | Maximum stacksize for task 23: unlimited
  | Maximum stacksize for task 24: unlimited
  | Maximum stacksize for task 25: unlimited
  | Maximum stacksize for task 26: unlimited
  | Maximum stacksize for task 27: unlimited
  | Maximum stacksize for task 28: unlimited
  | Maximum stacksize for task 29: unlimited
  | Maximum stacksize for task 30: unlimited
  | Maximum stacksize for task 31: unlimited
  | Maximum stacksize for task 32: unlimited
  | Maximum stacksize for task 33: unlimited
  | Maximum stacksize for task 34: unlimited
  | Maximum stacksize for task 35: unlimited
  | Maximum stacksize for task 36: unlimited
  | Maximum stacksize for task 37: unlimited
  | Maximum stacksize for task 38: unlimited
  | Maximum stacksize for task 39: unlimited
  | Maximum stacksize for task 40: unlimited
  | Maximum stacksize for task 41: unlimited
  | Maximum stacksize for task 42: unlimited
  | Maximum stacksize for task 43: unlimited
  | Maximum stacksize for task 44: unlimited
  | Maximum stacksize for task 45: unlimited
  | Maximum stacksize for task 46: unlimited
  | Maximum stacksize for task 47: unlimited
  | Maximum stacksize for task 48: unlimited
  | Maximum stacksize for task 49: unlimited
  | Maximum stacksize for task 50: unlimited
  | Maximum stacksize for task 51: unlimited
  | Maximum stacksize for task 52: unlimited
  | Maximum stacksize for task 53: unlimited
  | Maximum stacksize for task 54: unlimited
  | Maximum stacksize for task 55: unlimited
  | Maximum stacksize for task 56: unlimited
  | Maximum stacksize for task 57: unlimited
  | Maximum stacksize for task 58: unlimited
  | Maximum stacksize for task 59: unlimited
  | Maximum stacksize for task 60: unlimited
  | Maximum stacksize for task 61: unlimited
  | Maximum stacksize for task 62: unlimited
  | Maximum stacksize for task 63: unlimited
  | Maximum stacksize for task 64: unlimited
  | Maximum stacksize for task 65: unlimited
  | Maximum stacksize for task 66: unlimited
  | Maximum stacksize for task 67: unlimited
  | Maximum stacksize for task 68: unlimited
  | Maximum stacksize for task 69: unlimited
  | Maximum stacksize for task 70: unlimited
  | Maximum stacksize for task 71: unlimited
  | Maximum stacksize for task 72: unlimited
  | Maximum stacksize for task 73: unlimited
  | Maximum stacksize for task 74: unlimited
  | Maximum stacksize for task 75: unlimited
  | Maximum stacksize for task 76: unlimited
  | Maximum stacksize for task 77: unlimited
  | Maximum stacksize for task 78: unlimited
  | Maximum stacksize for task 79: unlimited
  | Maximum stacksize for task 80: unlimited
  | Maximum stacksize for task 81: unlimited
  | Maximum stacksize for task 82: unlimited
  | Maximum stacksize for task 83: unlimited
  | Maximum stacksize for task 84: unlimited
  | Maximum stacksize for task 85: unlimited
  | Maximum stacksize for task 86: unlimited
  | Maximum stacksize for task 87: unlimited
  | Maximum stacksize for task 88: unlimited
  | Maximum stacksize for task 89: unlimited
  | Maximum stacksize for task 90: unlimited
  | Maximum stacksize for task 91: unlimited
  | Maximum stacksize for task 92: unlimited
  | Maximum stacksize for task 93: unlimited
  | Maximum stacksize for task 94: unlimited
  | Maximum stacksize for task 95: unlimited
  | Maximum stacksize for task 96: unlimited
  | Maximum stacksize for task 97: unlimited
  | Maximum stacksize for task 98: unlimited
  | Maximum stacksize for task 99: unlimited
  | Maximum stacksize for task 100: unlimited
  | Maximum stacksize for task 101: unlimited
  | Maximum stacksize for task 102: unlimited
  | Maximum stacksize for task 103: unlimited
  | Maximum stacksize for task 104: unlimited
  | Maximum stacksize for task 105: unlimited
  | Maximum stacksize for task 106: unlimited
  | Maximum stacksize for task 107: unlimited
  | Maximum stacksize for task 108: unlimited
  | Maximum stacksize for task 109: unlimited
  | Maximum stacksize for task 110: unlimited
  | Maximum stacksize for task 111: unlimited
  | Maximum stacksize for task 112: unlimited
  | Maximum stacksize for task 113: unlimited
  | Maximum stacksize for task 114: unlimited
  | Maximum stacksize for task 115: unlimited
  | Maximum stacksize for task 116: unlimited
  | Maximum stacksize for task 117: unlimited
  | Maximum stacksize for task 118: unlimited
  | Maximum stacksize for task 119: unlimited
  | Maximum stacksize for task 120: unlimited
  | Maximum stacksize for task 121: unlimited
  | Maximum stacksize for task 122: unlimited
  | Maximum stacksize for task 123: unlimited
  | Maximum stacksize for task 124: unlimited
  | Maximum stacksize for task 125: unlimited
  | Maximum stacksize for task 126: unlimited
  | Maximum stacksize for task 127: unlimited
  | Maximum stacksize for task 128: unlimited
  | Maximum stacksize for task 129: unlimited
  | Maximum stacksize for task 130: unlimited
  | Maximum stacksize for task 131: unlimited
  | Maximum stacksize for task 132: unlimited
  | Maximum stacksize for task 133: unlimited
  | Maximum stacksize for task 134: unlimited
  | Maximum stacksize for task 135: unlimited
  | Maximum stacksize for task 136: unlimited
  | Maximum stacksize for task 137: unlimited
  | Maximum stacksize for task 138: unlimited
  | Maximum stacksize for task 139: unlimited
  | Maximum stacksize for task 140: unlimited
  | Maximum stacksize for task 141: unlimited
  | Maximum stacksize for task 142: unlimited
  | Maximum stacksize for task 143: unlimited
  | Maximum stacksize for task 144: unlimited
  | Maximum stacksize for task 145: unlimited
  | Maximum stacksize for task 146: unlimited
  | Maximum stacksize for task 147: unlimited
  | Maximum stacksize for task 148: unlimited
  | Maximum stacksize for task 149: unlimited
  | Maximum stacksize for task 150: unlimited
  | Maximum stacksize for task 151: unlimited
  | Maximum stacksize for task 152: unlimited
  | Maximum stacksize for task 153: unlimited
  | Maximum stacksize for task 154: unlimited
  | Maximum stacksize for task 155: unlimited
  | Maximum stacksize for task 156: unlimited
  | Maximum stacksize for task 157: unlimited
  | Maximum stacksize for task 158: unlimited
  | Maximum stacksize for task 159: unlimited
  | Maximum stacksize for task 160: unlimited
  | Maximum stacksize for task 161: unlimited
  | Maximum stacksize for task 162: unlimited
  | Maximum stacksize for task 163: unlimited
  | Maximum stacksize for task 164: unlimited
  | Maximum stacksize for task 165: unlimited
  | Maximum stacksize for task 166: unlimited
  | Maximum stacksize for task 167: unlimited
  | Maximum stacksize for task 168: unlimited
  | Maximum stacksize for task 169: unlimited
  | Maximum stacksize for task 170: unlimited
  | Maximum stacksize for task 171: unlimited
  | Maximum stacksize for task 172: unlimited
  | Maximum stacksize for task 173: unlimited
  | Maximum stacksize for task 174: unlimited
  | Maximum stacksize for task 175: unlimited
  | Maximum stacksize for task 176: unlimited
  | Maximum stacksize for task 177: unlimited
  | Maximum stacksize for task 178: unlimited
  | Maximum stacksize for task 179: unlimited
  | Maximum stacksize for task 180: unlimited
  | Maximum stacksize for task 181: unlimited
  | Maximum stacksize for task 182: unlimited
  | Maximum stacksize for task 183: unlimited
  | Maximum stacksize for task 184: unlimited
  | Maximum stacksize for task 185: unlimited
  | Maximum stacksize for task 186: unlimited
  | Maximum stacksize for task 187: unlimited
  | Maximum stacksize for task 188: unlimited
  | Maximum stacksize for task 189: unlimited
[...]
  | writing   projected DOS (raw data) for species O to file atom_proj_dos_O0101_raw.dat.
  | writing   projected DOS (shifted by the chemical potential) for species O to file atom_proj_dos_O0102.dat.
  | writing   projected DOS (raw data) for species O to file atom_proj_dos_O0102_raw.dat.
  | writing   projected DOS (shifted by the chemical potential) for species Ti to file atom_proj_dos_Ti0103.dat.
  | writing   projected DOS (raw data) for species Ti to file atom_proj_dos_Ti0103_raw.dat.
  | writing   projected DOS (shifted by the chemical potential) for species Ti to file atom_proj_dos_Ti0104.dat.
  | writing   projected DOS (raw data) for species Ti to file atom_proj_dos_Ti0104_raw.dat.
  | writing   projected DOS (shifted by the chemical potential) for species O to file atom_proj_dos_O0105.dat.
  | writing   projected DOS (raw data) for species O to file atom_proj_dos_O0105_raw.dat.
  | writing   projected DOS (shifted by the chemical potential) for species O to file atom_proj_dos_O0106.dat.
  | writing   projected DOS (raw data) for species O to file atom_proj_dos_O0106_raw.dat.
  | writing   projected DOS (shifted by the chemical potential) for species O to file atom_proj_dos_O0107.dat.
  | writing   projected DOS (raw data) for species O to file atom_proj_dos_O0107_raw.dat.
  | writing   projected DOS (shifted by the chemical potential) for species O to file atom_proj_dos_O0108.dat.
  | writing   projected DOS (raw data) for species O to file atom_proj_dos_O0108_raw.dat.
  | writing   projected DOS (shifted by the chemical potential) for species Ti to file atom_proj_dos_Ti0109.dat.
  | writing   projected DOS (raw data) for species Ti to file atom_proj_dos_Ti0109_raw.dat.
  | writing   projected DOS (shifted by the chemical potential) for species Ti to file atom_proj_dos_Ti0110.dat.
  | writing   projected DOS (raw data) for species Ti to file atom_proj_dos_Ti0110_raw.dat.
  | writing   projected DOS (shifted by the chemical potential) for species O to file atom_proj_dos_O0111.dat.
  | writing   projected DOS (raw data) for species O to file atom_proj_dos_O0111_raw.dat.
  | writing   projected DOS (shifted by the chemical potential) for species O to file atom_proj_dos_O0112.dat.
  | writing   projected DOS (raw data) for species O to file atom_proj_dos_O0112_raw.dat.
  | writing   projected DOS (shifted by the chemical potential) for species O to file atom_proj_dos_O0113.dat.
  | writing   projected DOS (raw data) for species O to file atom_proj_dos_O0113_raw.dat.
  | writing   projected DOS (shifted by the chemical potential) for species O to file atom_proj_dos_O0114.dat.
  | writing   projected DOS (raw data) for species O to file atom_proj_dos_O0114_raw.dat.
  | writing   projected DOS (shifted by the chemical potential) for species Ti to file atom_proj_dos_Ti0115.dat.
  | writing   projected DOS (raw data) for species Ti to file atom_proj_dos_Ti0115_raw.dat.
  | writing   projected DOS (shifted by the chemical potential) for species Ti to file atom_proj_dos_Ti0116.dat.
  | writing   projected DOS (raw data) for species Ti to file atom_proj_dos_Ti0116_raw.dat.
  | writing   projected DOS (shifted by the chemical potential) for species O to file atom_proj_dos_O0117.dat.
  | writing   projected DOS (raw data) for species O to file atom_proj_dos_O0117_raw.dat.
  | writing   projected DOS (shifted by the chemical potential) for species O to file atom_proj_dos_O0118.dat.
  | writing   projected DOS (raw data) for species O to file atom_proj_dos_O0118_raw.dat.
  | writing   projected DOS (shifted by the chemical potential) for species O to file atom_proj_dos_O0119.dat.
  | writing   projected DOS (raw data) for species O to file atom_proj_dos_O0119_raw.dat.
  | writing   projected DOS (shifted by the chemical potential) for species O to file atom_proj_dos_O0120.dat.
  | writing   projected DOS (raw data) for species O to file atom_proj_dos_O0120_raw.dat.
  | writing   projected DOS (shifted by the chemical potential) for species Ti to file atom_proj_dos_Ti0121.dat.
  | writing   projected DOS (raw data) for species Ti to file atom_proj_dos_Ti0121_raw.dat.
  | writing   projected DOS (shifted by the chemical potential) for species Ti to file atom_proj_dos_Ti0122.dat.
  | writing   projected DOS (raw data) for species Ti to file atom_proj_dos_Ti0122_raw.dat.
  | writing   projected DOS (shifted by the chemical potential) for species O to file atom_proj_dos_O0123.dat.
  | writing   projected DOS (raw data) for species O to file atom_proj_dos_O0123_raw.dat.
  | writing   projected DOS (shifted by the chemical potential) for species O to file atom_proj_dos_O0124.dat.
  | writing   projected DOS (raw data) for species O to file atom_proj_dos_O0124_raw.dat.
  | writing   projected DOS (shifted by the chemical potential) for species O to file atom_proj_dos_O0125.dat.
  | writing   projected DOS (raw data) for species O to file atom_proj_dos_O0125_raw.dat.
  | writing   projected DOS (shifted by the chemical potential) for species O to file atom_proj_dos_O0126.dat.
  | writing   projected DOS (raw data) for species O to file atom_proj_dos_O0126_raw.dat.
  | writing   projected DOS (shifted by the chemical potential) for species Ti to file atom_proj_dos_Ti0127.dat.
  | writing   projected DOS (raw data) for species Ti to file atom_proj_dos_Ti0127_raw.dat.
  | writing   projected DOS (shifted by the chemical potential) for species Ti to file atom_proj_dos_Ti0128.dat.
  | writing   projected DOS (raw data) for species Ti to file atom_proj_dos_Ti0128_raw.dat.
  | writing   projected DOS (shifted by the chemical potential) for species O to file atom_proj_dos_O0129.dat.
  | writing   projected DOS (raw data) for species O to file atom_proj_dos_O0129_raw.dat.
  | writing   projected DOS (shifted by the chemical potential) for species O to file atom_proj_dos_O0130.dat.
  | writing   projected DOS (raw data) for species O to file atom_proj_dos_O0130_raw.dat.
  | writing   projected DOS (shifted by the chemical potential) for species O to file atom_proj_dos_O0131.dat.
  | writing   projected DOS (raw data) for species O to file atom_proj_dos_O0131_raw.dat.
  | writing   projected DOS (shifted by the chemical potential) for species O to file atom_proj_dos_O0132.dat.
  | writing   projected DOS (raw data) for species O to file atom_proj_dos_O0132_raw.dat.
  | writing   projected DOS (shifted by the chemical potential) for species Ti to file atom_proj_dos_Ti0133.dat.
  | writing   projected DOS (raw data) for species Ti to file atom_proj_dos_Ti0133_raw.dat.
  | writing   projected DOS (shifted by the chemical potential) for species Ti to file atom_proj_dos_Ti0134.dat.
  | writing   projected DOS (raw data) for species Ti to file atom_proj_dos_Ti0134_raw.dat.
  | writing   projected DOS (shifted by the chemical potential) for species O to file atom_proj_dos_O0135.dat.
  | writing   projected DOS (raw data) for species O to file atom_proj_dos_O0135_raw.dat.
  | writing   projected DOS (shifted by the chemical potential) for species O to file atom_proj_dos_O0136.dat.
  | writing   projected DOS (raw data) for species O to file atom_proj_dos_O0136_raw.dat.
  | writing   projected DOS (shifted by the chemical potential) for species O to file atom_proj_dos_O0137.dat.
  | writing   projected DOS (raw data) for species O to file atom_proj_dos_O0137_raw.dat.
  | writing   projected DOS (shifted by the chemical potential) for species O to file atom_proj_dos_O0138.dat.
  | writing   projected DOS (raw data) for species O to file atom_proj_dos_O0138_raw.dat.
  | writing   projected DOS (shifted by the chemical potential) for species Ti to file atom_proj_dos_Ti0139.dat.
  | writing   projected DOS (raw data) for species Ti to file atom_proj_dos_Ti0139_raw.dat.
  | writing   projected DOS (shifted by the chemical potential) for species Ti to file atom_proj_dos_Ti0140.dat.
  | writing   projected DOS (raw data) for species Ti to file atom_proj_dos_Ti0140_raw.dat.
  | writing   projected DOS (shifted by the chemical potential) for species O to file atom_proj_dos_O0141.dat.
  | writing   projected DOS (raw data) for species O to file atom_proj_dos_O0141_raw.dat.
  | writing   projected DOS (shifted by the chemical potential) for species O to file atom_proj_dos_O0142.dat.
  | writing   projected DOS (raw data) for species O to file atom_proj_dos_O0142_raw.dat.
  | writing   projected DOS (shifted by the chemical potential) for species O to file atom_proj_dos_O0143.dat.
  | writing   projected DOS (raw data) for species O to file atom_proj_dos_O0143_raw.dat.
  | writing   projected DOS (shifted by the chemical potential) for species O to file atom_proj_dos_O0144.dat.
  | writing   projected DOS (raw data) for species O to file atom_proj_dos_O0144_raw.dat.
  | writing   projected DOS (shifted by the chemical potential) for species Ti to file atom_proj_dos_Ti0145.dat.
  | writing   projected DOS (raw data) for species Ti to file atom_proj_dos_Ti0145_raw.dat.
  | writing   projected DOS (shifted by the chemical potential) for species Ti to file atom_proj_dos_Ti0146.dat.
  | writing   projected DOS (raw data) for species Ti to file atom_proj_dos_Ti0146_raw.dat.
  | writing   projected DOS (shifted by the chemical potential) for species O to file atom_proj_dos_O0147.dat.
  | writing   projected DOS (raw data) for species O to file atom_proj_dos_O0147_raw.dat.
  | writing   projected DOS (shifted by the chemical potential) for species O to file atom_proj_dos_O0148.dat.
  | writing   projected DOS (raw data) for species O to file atom_proj_dos_O0148_raw.dat.
  | writing   projected DOS (shifted by the chemical potential) for species O to file atom_proj_dos_O0149.dat.
  | writing   projected DOS (raw data) for species O to file atom_proj_dos_O0149_raw.dat.
  | writing   projected DOS (shifted by the chemical potential) for species O to file atom_proj_dos_O0150.dat.
  | writing   projected DOS (raw data) for species O to file atom_proj_dos_O0150_raw.dat.
  | writing   projected DOS (shifted by the chemical potential) for species Ti to file atom_proj_dos_Ti0151.dat.
  | writing   projected DOS (raw data) for species Ti to file atom_proj_dos_Ti0151_raw.dat.
  | writing   projected DOS (shifted by the chemical potential) for species Ti to file atom_proj_dos_Ti0152.dat.
  | writing   projected DOS (raw data) for species Ti to file atom_proj_dos_Ti0152_raw.dat.
  | writing   projected DOS (shifted by the chemical potential) for species O to file atom_proj_dos_O0153.dat.
  | writing   projected DOS (raw data) for species O to file atom_proj_dos_O0153_raw.dat.
  | writing   projected DOS (shifted by the chemical potential) for species O to file atom_proj_dos_O0154.dat.
  | writing   projected DOS (raw data) for species O to file atom_proj_dos_O0154_raw.dat.
  | writing   projected DOS (shifted by the chemical potential) for species O to file atom_proj_dos_O0155.dat.
  | writing   projected DOS (raw data) for species O to file atom_proj_dos_O0155_raw.dat.
  | writing   projected DOS (shifted by the chemical potential) for species O to file atom_proj_dos_O0156.dat.
  | writing   projected DOS (raw data) for species O to file atom_proj_dos_O0156_raw.dat.
  | writing   projected DOS (shifted by the chemical potential) for species Ti to file atom_proj_dos_Ti0157.dat.
  | writing   projected DOS (raw data) for species Ti to file atom_proj_dos_Ti0157_raw.dat.
  | writing   projected DOS (shifted by the chemical potential) for species Ti to file atom_proj_dos_Ti0158.dat.
  | writing   projected DOS (raw data) for species Ti to file atom_proj_dos_Ti0158_raw.dat.
  | writing   projected DOS (shifted by the chemical potential) for species O to file atom_proj_dos_O0159.dat.
  | writing   projected DOS (raw data) for species O to file atom_proj_dos_O0159_raw.dat.
  | writing   projected DOS (shifted by the chemical potential) for species O to file atom_proj_dos_O0160.dat.
  | writing   projected DOS (raw data) for species O to file atom_proj_dos_O0160_raw.dat.
  | writing   projected DOS (shifted by the chemical potential) for species O to file atom_proj_dos_O0161.dat.
  | writing   projected DOS (raw data) for species O to file atom_proj_dos_O0161_raw.dat.
  | writing   projected DOS (shifted by the chemical potential) for species O to file atom_proj_dos_O0162.dat.
  | writing   projected DOS (raw data) for species O to file atom_proj_dos_O0162_raw.dat.
  Mulliken analysis                                       :  max(cpu_time)    wall_clock(cpu1)
  | Time for Mulliken analysis                            :          0.804               1.016
  | Total time for Mulliken analysis                      :          0.804               1.016
------------------------------------------------------------

------------------------------------------------------------------------------
  Final output of selected total energy values:

  The following output summarizes some interesting total energy values
  at the end of a run (AFTER all relaxation, molecular dynamics, etc.).

  | Total energy of the DFT / Hartree-Fock s.c.f. calculation      :       -1977815.441350576 eV
  | Final zero-broadening corrected energy (caution - metals only) :       -1977815.441350576 eV
  | For reference only, the value of 1 Hartree used in FHI-aims is :             27.211384500 eV
  | For reference only, the overall average (free atom contribution
  | + realspace contribution) of the electrostatic potential after
  | s.c.f. convergence is                                          :            -17.414494469 eV

  Before relying on these values, please be sure to understand exactly which
  total energy value is referred to by a given number. Different objects may
  all carry the same name 'total energy'. Definitions:

  Total energy of the DFT / Hartree-Fock s.c.f. calculation:
  | Note that this energy does not include ANY quantities calculated after the
  | s.c.f. cycle, in particular not ANY RPA, MP2, etc. many-body perturbation terms.

  Final zero-broadening corrected energy:
  | For metallic systems only, a broadening of the occupation numbers at the Fermi
  | level can be extrapolated back to zero broadening by an electron-gas inspired
  | formula. For all systems that are not real metals, this value can be
  | meaningless and should be avoided.

------------------------------------------------------------------------------
  Methods described in the following list of references were used in this FHI-aims run.
  If you publish the results, please make sure to cite these reference if they apply.
  FHI-aims is an academic code, and for our developers (often, Ph.D. students
  and postdocs), scientific credit in the community is essential.
  Thank you for helping us!

  For any use of FHI-aims, please cite:

    Volker Blum, Ralf Gehrke, Felix Hanke, Paula Havu, Ville Havu,
    Xinguo Ren, Karsten Reuter, and Matthias Scheffler
    'Ab initio molecular simulations with numeric atom-centered orbitals'
    Computer Physics Communications 180, 2175-2196 (2009)
    http://doi.org/10.1016/j.cpc.2009.06.022


  The provided symmetry information was generated with SPGlib:

    Atsushi Togo, Yusuke Seto, Dimitar Pashov
    SPGlib 1.7.3 obtained from http://spglib.sourceforge.net
    Copyright (C) 2008 Atsushi Togo


 DFT+U infrastructure was used in your run
 please cite:

 Matthias Kick, Karsten Reuter and Harald Oberhofer,
 Intricacies Of DFT+U, not only in a Numeric Atom Centered Orbital Framework

 Journal of Chemical Theory and Computation
 https://


  The ELSI infrastructure was used in your run to solve the Kohn-Sham electronic structure.
  Please check out http://elsi-interchange.org to learn more.
  If scalability is important for your project, please acknowledge ELSI by citing:

    V. W-z. Yu, F. Corsetti, A. Garcia, W. P. Huhn, M. Jacquelin, W. Jia,
    B. Lange, L. Lin, J. Lu, W. Mi, A. Seifitokaldani, A. Vazquez-Mayagoitia,
    C. Yang, H. Yang, and V. Blum
    'ELSI: A unified software interface for Kohn-Sham electronic structure solvers'
    Computer Physics Communications 222, 267-285 (2018).
    http://doi.org/10.1016/j.cpc.2017.09.007


  For the real-space grid partitioning and parallelization used in this calculation, please cite:

    Ville Havu, Volker Blum, Paula Havu, and Matthias Scheffler,
    'Efficient O(N) integration for all-electron electronic structure calculation'
    'using numerically tabulated basis functions'
    Journal of Computational Physics 228, 8367-8379 (2009).
    http://doi.org/10.1016/j.jcp.2009.08.008

  Of course, there are many other important community references, e.g., those cited in the
  above references. Our list is limited to references that describe implementations in the
  FHI-aims code. The reason is purely practical (length of this list) - please credit others as well.

 * A warning was issued further up regarding the accuracy of onsite integrals.
   An integral with a negative eigenvalue was among the flagged integrals.
   In most standard situations, this warning is probably harmless.
   If needed, this can be verified by adjusting the radial_multiplier flag.

------------------------------------------------------------
          Leaving FHI-aims.
          Date     :  20240717, Time     :  192224.634

          Computational steps:
          | Number of self-consistency cycles          :           31
          | Number of SCF (re)initializations          :            1

          Detailed time accounting                     :  max(cpu_time)    wall_clock(cpu1)
          | Total time                                  :      310.718 s         312.098 s
          | Preparation time                            :        1.270 s           1.269 s
          | Boundary condition initalization            :        0.281 s           0.281 s
          | Grid partitioning                           :        0.594 s           0.596 s
          | Preloading free-atom quantities on grid     :        0.730 s           0.734 s
          | Free-atom superposition energy              :        0.103 s           0.103 s
          | Total time for integrations                 :       47.921 s          48.036 s
          | Total time for solution of K.-S. equations  :      102.148 s          73.220 s
          | Total time for density & force components   :       78.159 s          78.349 s
          | Total time for mixing & preconditioning     :       30.380 s          30.240 s
          | Total time for Hartree multipole update     :        0.372 s           0.386 s
          | Total time for Hartree multipole sum        :       14.356 s          14.398 s
          | Total time for total energy evaluation      :        0.154 s           0.082 s
          | Total time NSC force correction             :        2.360 s           2.551 s
          | Total time for scaled ZORA corrections      :        0.000 s           0.000 s
          | Total time for band structures, DOS         :        0.017 s           0.067 s
          | Total time for Mulliken analysis            :        1.015 s           1.016 s

          Partial memory accounting:
          | Residual value for overall tracked memory usage across tasks:     0.000000 MB (should be 0.000000 MB)
          | Peak values for overall tracked memory usage:
          |   Minimum:      208.147 MB (on task   6 after allocating temp_ham_ovlp)
          |   Maximum:      208.797 MB (on task   0 after allocating temp_ham_ovlp)
          |   Average:      208.276 MB
          | Largest tracked array allocation:
          |   Minimum:       56.552 MB (overlap_matrix on task   0)
          |   Maximum:       56.552 MB (overlap_matrix on task   0)
          |   Average:       56.552 MB
          Note:  These values currently only include a subset of arrays which are explicitly tracked.
          The "true" memory usage will be greater.

          Have a nice day.
------------------------------------------------------------
