------------------------------------------------------------
          Invoking FHI-aims ...

          When using FHI-aims, please cite the following reference:

            Volker Blum, Ralf Gehrke, Felix Hanke, Paula Havu,
            Ville Havu, Xinguo Ren, Karsten Reuter, and Matthias Scheffler,
            'Ab Initio Molecular Simulations with Numeric Atom-Centered Orbitals',
            Computer Physics Communications 180, 2175-2196 (2009)

          In addition, many other developments in FHI-aims are likely important for
          your particular application. If so, please cite them. A partial list of references
          is written at the end of this file. Thank you for giving credit to the authors
          of these developments.

          For general information about FHI-aims please find us at

            https://fhi-aims.org

          Online tutorials can be found at

            https://fhi-aims-club.gitlab.io/tutorials/tutorials-overview/

          For any questions about FHI-aims, please visit our slack channel at

            https://fhi-aims.slack.com

          and our main development and support site at

            https://aims-git.rz-berlin.mpg.de .

          The latter site, in particular, has a wiki to collect information, as well
          as an issue tracker to log discussions, suggest improvements, and report issues
          or bugs. https://aims-git.rz-berlin.mpg.de is also the main development site
          of the project and all new and updated code versions can be obtained there.
          Please send an email to aims-coordinators@fhi-berlin.mpg.de and we will add
          you to these sites. They are for you and everyone is welcome there.

------------------------------------------------------------



  Date     :  20240717, Time     :  010454.599
  Time zero on CPU 1             :   0.186436000000000E+00  s.
  Internal wall clock time zero  :           490410294.599  s.

  FHI-aims created a unique identifier for this run for later identification
  aims_uuid : 759BAA6C-E9AE-43C6-A8F2-63869EC4B2DD

  Build configuration of the current instance of FHI-aims
  -------------------------------------------------------
  FHI-aims version      : 230612
  Commit number         : 0c86b0d53
  CMake host system     : Linux-3.10.0-1160.80.1.el7.x86_64
  CMake version         : 3.24.2
  Fortran compiler      : /apps/compilers/intel/2018.2/compilers_and_libraries_2018/linux/mpi/intel64/bin/mpif90 (Intel) version 18.0.2.20180210
  Fortran compiler flags: -O3 -ip -fp-model precise
  C compiler            : /apps/compilers/intel/2018.2/compilers_and_libraries_2018/linux/bin/intel64/icc (Intel) version 18.0.2.20180210
  C compiler flags      : -O3 -ip -fp-model precise -std=gnu99
  HIP compiler          :
  HIP compiler flags    :
  HIP GPU arch          :
  ELPA2 kernel          : AVX2
  Using MPI
  Using ScaLAPACK
  Using LibXC
  Using i-PI
  Using RLSY
  Linking against: /apps/compilers/intel/2018.2/compilers_and_libraries_2018/linux/mkl/lib/intel64/libmkl_intel_lp64.so
                   /apps/compilers/intel/2018.2/compilers_and_libraries_2018/linux/mkl/lib/intel64/libmkl_intel_thread.so
                   /apps/compilers/intel/2018.2/compilers_and_libraries_2018/linux/mkl/lib/intel64/libmkl_core.so
                   /apps/compilers/intel/2018.2/compilers_and_libraries_2018/linux/mkl/lib/intel64/libmkl_blacs_intelmpi_lp64.so
                   /apps/compilers/intel/2018.2/compilers_and_libraries_2018/linux/mkl/lib/intel64/libmkl_scalapack_lp64.so
                   /usr/lib64/libpthread.so

  Using      200 parallel tasks.
  Task        0 on host ccs0097 reporting.
  Task        1 on host ccs0097 reporting.
  Task        2 on host ccs0097 reporting.
  Task        3 on host ccs0097 reporting.
  Task        4 on host ccs0097 reporting.
  Task        5 on host ccs0097 reporting.
  Task        6 on host ccs0097 reporting.
  Task        7 on host ccs0097 reporting.
  Task        8 on host ccs0097 reporting.
  Task        9 on host ccs0097 reporting.
  Task       10 on host ccs0097 reporting.
  Task       11 on host ccs0097 reporting.
  Task       12 on host ccs0097 reporting.
  Task       13 on host ccs0097 reporting.
  Task       14 on host ccs0097 reporting.
  Task       15 on host ccs0097 reporting.
  Task       16 on host ccs0097 reporting.
  Task       17 on host ccs0097 reporting.
  Task       18 on host ccs0097 reporting.
  Task       19 on host ccs0097 reporting.
  Task       20 on host ccs0097 reporting.
  Task       21 on host ccs0097 reporting.
  Task       22 on host ccs0097 reporting.
  Task       23 on host ccs0097 reporting.
  Task       24 on host ccs0097 reporting.
  Task       25 on host ccs0097 reporting.
  Task       26 on host ccs0097 reporting.
  Task       27 on host ccs0097 reporting.
  Task       28 on host ccs0097 reporting.
  Task       29 on host ccs0097 reporting.
  Task       30 on host ccs0097 reporting.
  Task       31 on host ccs0097 reporting.
  Task       32 on host ccs0097 reporting.
  Task       33 on host ccs0097 reporting.
  Task       34 on host ccs0097 reporting.
  Task       35 on host ccs0097 reporting.
  Task       36 on host ccs0097 reporting.
  Task       37 on host ccs0097 reporting.
  Task       38 on host ccs0097 reporting.
  Task       39 on host ccs0097 reporting.
  Task       40 on host ccs0098 reporting.
  Task       41 on host ccs0098 reporting.
  Task       42 on host ccs0098 reporting.
  Task       43 on host ccs0098 reporting.
  Task       44 on host ccs0098 reporting.
  Task       45 on host ccs0098 reporting.
  Task       46 on host ccs0098 reporting.
  Task       47 on host ccs0098 reporting.
  Task       48 on host ccs0098 reporting.
  Task       49 on host ccs0098 reporting.
  Task       50 on host ccs0098 reporting.
  Task       51 on host ccs0098 reporting.
  Task       52 on host ccs0098 reporting.
  Task       53 on host ccs0098 reporting.
  Task       54 on host ccs0098 reporting.
  Task       55 on host ccs0098 reporting.
  Task       56 on host ccs0098 reporting.
  Task       57 on host ccs0098 reporting.
  Task       58 on host ccs0098 reporting.
  Task       59 on host ccs0098 reporting.
  Task       60 on host ccs0098 reporting.
  Task       61 on host ccs0098 reporting.
  Task       62 on host ccs0098 reporting.
  Task       63 on host ccs0098 reporting.
  Task       64 on host ccs0098 reporting.
  Task       65 on host ccs0098 reporting.
  Task       66 on host ccs0098 reporting.
  Task       67 on host ccs0098 reporting.
  Task       68 on host ccs0098 reporting.
  Task       69 on host ccs0098 reporting.
  Task       70 on host ccs0098 reporting.
  Task       71 on host ccs0098 reporting.
  Task       72 on host ccs0098 reporting.
  Task       73 on host ccs0098 reporting.
  Task       74 on host ccs0098 reporting.
  Task       75 on host ccs0098 reporting.
  Task       76 on host ccs0098 reporting.
  Task       77 on host ccs0098 reporting.
  Task       78 on host ccs0098 reporting.
  Task       79 on host ccs0098 reporting.
  Task       80 on host ccs0101 reporting.
  Task       81 on host ccs0101 reporting.
  Task       82 on host ccs0101 reporting.
  Task       83 on host ccs0101 reporting.
  Task       84 on host ccs0101 reporting.
  Task       85 on host ccs0101 reporting.
  Task       86 on host ccs0101 reporting.
  Task       87 on host ccs0101 reporting.
  Task       88 on host ccs0101 reporting.
  Task       89 on host ccs0101 reporting.
  Task       90 on host ccs0101 reporting.
  Task       91 on host ccs0101 reporting.
  Task       92 on host ccs0101 reporting.
  Task       93 on host ccs0101 reporting.
  Task       94 on host ccs0101 reporting.
  Task       95 on host ccs0101 reporting.
  Task       96 on host ccs0101 reporting.
  Task       97 on host ccs0101 reporting.
  Task       98 on host ccs0101 reporting.
  Task       99 on host ccs0101 reporting.
  Task      100 on host ccs0101 reporting.
  Task      101 on host ccs0101 reporting.
  Task      102 on host ccs0101 reporting.
  Task      103 on host ccs0101 reporting.
  Task      104 on host ccs0101 reporting.
  Task      105 on host ccs0101 reporting.
  Task      106 on host ccs0101 reporting.
  Task      107 on host ccs0101 reporting.
  Task      108 on host ccs0101 reporting.
  Task      109 on host ccs0101 reporting.
  Task      110 on host ccs0101 reporting.
  Task      111 on host ccs0101 reporting.
  Task      112 on host ccs0101 reporting.
  Task      113 on host ccs0101 reporting.
  Task      114 on host ccs0101 reporting.
  Task      115 on host ccs0101 reporting.
  Task      116 on host ccs0101 reporting.
  Task      117 on host ccs0101 reporting.
  Task      118 on host ccs0101 reporting.
  Task      119 on host ccs0101 reporting.
  Task      120 on host ccs0102 reporting.
  Task      121 on host ccs0102 reporting.
  Task      122 on host ccs0102 reporting.
  Task      123 on host ccs0102 reporting.
  Task      124 on host ccs0102 reporting.
  Task      125 on host ccs0102 reporting.
  Task      126 on host ccs0102 reporting.
  Task      127 on host ccs0102 reporting.
  Task      128 on host ccs0102 reporting.
  Task      129 on host ccs0102 reporting.
  Task      130 on host ccs0102 reporting.
  Task      131 on host ccs0102 reporting.
  Task      132 on host ccs0102 reporting.
  Task      133 on host ccs0102 reporting.
  Task      134 on host ccs0102 reporting.
  Task      135 on host ccs0102 reporting.
  Task      136 on host ccs0102 reporting.
  Task      137 on host ccs0102 reporting.
  Task      138 on host ccs0102 reporting.
  Task      139 on host ccs0102 reporting.
  Task      140 on host ccs0102 reporting.
  Task      141 on host ccs0102 reporting.
  Task      142 on host ccs0102 reporting.
  Task      143 on host ccs0102 reporting.
  Task      144 on host ccs0102 reporting.
  Task      145 on host ccs0102 reporting.
  Task      146 on host ccs0102 reporting.
  Task      147 on host ccs0102 reporting.
  Task      148 on host ccs0102 reporting.
  Task      149 on host ccs0102 reporting.
  Task      150 on host ccs0102 reporting.
  Task      151 on host ccs0102 reporting.
  Task      152 on host ccs0102 reporting.
  Task      153 on host ccs0102 reporting.
  Task      154 on host ccs0102 reporting.
  Task      155 on host ccs0102 reporting.
  Task      156 on host ccs0102 reporting.
  Task      157 on host ccs0102 reporting.
  Task      158 on host ccs0102 reporting.
  Task      159 on host ccs0102 reporting.
  Task      160 on host ccs0105 reporting.
  Task      161 on host ccs0105 reporting.
  Task      162 on host ccs0105 reporting.
  Task      163 on host ccs0105 reporting.
  Task      164 on host ccs0105 reporting.
  Task      165 on host ccs0105 reporting.
  Task      166 on host ccs0105 reporting.
  Task      167 on host ccs0105 reporting.
  Task      168 on host ccs0105 reporting.
  Task      169 on host ccs0105 reporting.
  Task      170 on host ccs0105 reporting.
  Task      171 on host ccs0105 reporting.
  Task      172 on host ccs0105 reporting.
  Task      173 on host ccs0105 reporting.
  Task      174 on host ccs0105 reporting.
  Task      175 on host ccs0105 reporting.
  Task      176 on host ccs0105 reporting.
  Task      177 on host ccs0105 reporting.
  Task      178 on host ccs0105 reporting.
  Task      179 on host ccs0105 reporting.
  Task      180 on host ccs0105 reporting.
  Task      181 on host ccs0105 reporting.
  Task      182 on host ccs0105 reporting.
  Task      183 on host ccs0105 reporting.
  Task      184 on host ccs0105 reporting.
  Task      185 on host ccs0105 reporting.
  Task      186 on host ccs0105 reporting.
  Task      187 on host ccs0105 reporting.
  Task      188 on host ccs0105 reporting.
  Task      189 on host ccs0105 reporting.
  Task      190 on host ccs0105 reporting.
  Task      191 on host ccs0105 reporting.
  Task      192 on host ccs0105 reporting.
  Task      193 on host ccs0105 reporting.
  Task      194 on host ccs0105 reporting.
  Task      195 on host ccs0105 reporting.
  Task      196 on host ccs0105 reporting.
  Task      197 on host ccs0105 reporting.
  Task      198 on host ccs0105 reporting.
  Task      199 on host ccs0105 reporting.

  Obtaining array dimensions for all initial allocations:
  
  -----------------------------------------------------------------------
  Parsing control.in (first pass over file, find array dimensions only).
  The contents of control.in will be repeated verbatim below
  unless switched off by setting 'verbatim_writeout .false.' .
  in the first line of control.in .
  -----------------------------------------------------------------------
  
  #===============================================================================
  # FHI-aims file: ./control.in
  # Created using the Atomic Simulation Environment (ASE)
  # Wed Jul 17 01:04:53 2024
  #===============================================================================
  spin                               none
  relativistic                       atomic_zora scalar
  compute_forces                     .true.
  override_warning_libxc             true
  xc                                 libxc MGGA_X_MBEEF+GGA_C_PBE_SOL
  k_grid                             4 4 2
  occupation_type                    gaussian 0.1
  plus_u_petukhov_mixing             1
  plus_u_use_hydros                  True
  plus_u_matrix_control              True
  plus_u_matrix_release              0.001
  output                             dos -18 0 200 0.1
  output                             atom_proj_dos -18 0 200 0.1
  sc_accuracy_etot                   1e-06
  sc_accuracy_eev                    0.001
  sc_accuracy_rho                    1e-06
  sc_accuracy_forces                 0.0001
  #===============================================================================
  
  ################################################################################
  #
  #  FHI-aims code project
  #  VB, Fritz-Haber Institut, 2009
  #
  #  Suggested "light" defaults for Ti atom (to be pasted into control.in file)
  #  Be sure to double-check any results obtained with these settings for post-processing,
  #  e.g., with the "tight" defaults and larger basis sets.
  #
  ################################################################################
    species        Ti
  #     global species definitions
      nucleus             22
      mass                47.867
  #
      l_hartree           4
  #
      cut_pot             3.5          1.5  1.0
      basis_dep_cutoff    1e-4
  #
      radial_base         48 5.0
      radial_multiplier   1
      angular_grids       specified
        division   0.5171   50
        division   0.9824  110
        division   1.2917  194
        division   1.4940  302
  #      division   1.6934  434
  #      division   1.8425  590
  #      division   2.1901  770
  #      division   2.2896  974
  #      division   2.8244 1202
  #      outer_grid  974
        outer_grid  302
  ################################################################################
  #
  #  Definition of "minimal" basis
  #
  ################################################################################
  #     valence basis states
      valence      4  s   2.
      valence      3  p   6.
      valence      3  d   2.
  #     ion occupancy
      ion_occ      4  s   1.
      ion_occ      3  p   6.
      ion_occ      3  d   1.
  ################################################################################
  #
  #  Suggested additional basis functions. For production calculations,
  #  uncomment them one after another (the most important basis functions are
  #  listed first).
  #
  #  Constructed for dimers: 1.6 A, 1.85 A, 2.5 A, 3.25 A, 4.25 A
  #
  ################################################################################
  #  "First tier" - improvements: -396.25 meV to -19.41 meV
       hydro 4 f 8
       hydro 3 d 2.7
       ionic 4 p auto
  #     hydro 5 g 11.6
       ionic 4 s auto
  #  "Second tier" - improvements: -16.30 meV to -2.03 meV
  #     hydro 3 d 4.4
  #     hydro 6 h 16
  #     hydro 4 f 9.4
  #     hydro 4 p 4.5
  #     hydro 1 s 0.5
  #  "Third tier" - improvements: -6.28 meV to -0.37 meV
  #     hydro 4 d 6.4
  #     hydro 4 f 10
  #     hydro 5 g 12
  #     hydro 2 p 1.7
  #     hydro 6 h 16.4
  #     hydro 4 s 3.8
  #  Further basis functions: -0.45 meV and smaller improvements
  #     hydro 3 d 8.8
  #     hydro 5 p 18
  #     hydro 4 f 22.4
  #     hydro 5 f 7.2  # -0.16 meV
  #     hydro 3 d 2.1  # -0.11 meV
  #     hydro 5 g 7.4  # -0.09 meV
  plus_u 3 d 2.575
  hubbard_coefficient 0.752 -0.486 0 0
  ################################################################################
  #
  #  FHI-aims code project
  #  VB, Fritz-Haber Institut, 2009
  #
  #  Suggested "light" defaults for O atom (to be pasted into control.in file)
  #  Be sure to double-check any results obtained with these settings for post-processing,
  #  e.g., with the "tight" defaults and larger basis sets.
  #
  ################################################################################
    species        O
  #     global species definitions
      nucleus             8
      mass                15.9994
  #
      l_hartree           4
  #
      cut_pot             3.5  1.5  1.0
      basis_dep_cutoff    1e-4
  #
      radial_base         36 5.0
      radial_multiplier   1
       angular_grids specified
        division   0.2659   50
        division   0.4451  110
        division   0.6052  194
        division   0.7543  302
  #      division   0.8014  434
  #      division   0.8507  590
  #      division   0.8762  770
  #      division   0.9023  974
  #      division   1.2339 1202
  #      outer_grid 974
        outer_grid 302
  ################################################################################
  #
  #  Definition of "minimal" basis
  #
  ################################################################################
  #     valence basis states
      valence      2  s   2.
      valence      2  p   4.
  #     ion occupancy
      ion_occ      2  s   1.
      ion_occ      2  p   3.
  ################################################################################
  #
  #  Suggested additional basis functions. For production calculations,
  #  uncomment them one after another (the most important basis functions are
  #  listed first).
  #
  #  Constructed for dimers: 1.0 A, 1.208 A, 1.5 A, 2.0 A, 3.0 A
  #
  ################################################################################
  #  "First tier" - improvements: -699.05 meV to -159.38 meV
       hydro 2 p 1.8
       hydro 3 d 7.6
       hydro 3 s 6.4
  #  "Second tier" - improvements: -49.91 meV to -5.39 meV
  #     hydro 4 f 11.6
  #     hydro 3 p 6.2
  #     hydro 3 d 5.6
  #     hydro 5 g 17.6
  #     hydro 1 s 0.75
  #  "Third tier" - improvements: -2.83 meV to -0.50 meV
  #     ionic 2 p auto
  #     hydro 4 f 10.8
  #     hydro 4 d 4.7
  #     hydro 2 s 6.8
  #  "Fourth tier" - improvements: -0.40 meV to -0.12 meV
  #     hydro 3 p 5
  #     hydro 3 s 3.3
  #     hydro 5 g 15.6
  #     hydro 4 f 17.6
  #     hydro 4 d 14
  # Further basis functions - -0.08 meV and below
  #     hydro 3 s 2.1
  #     hydro 4 d 11.6
  #     hydro 3 p 16
  #     hydro 2 s 17.2################################################################################
  #
  #  FHI-aims code project
  #  VB, Fritz-Haber Institut, 2009
  #
  #  Suggested "light" defaults for Pd atom (to be pasted into control.in file)
  #  Be sure to double-check any results obtained with these settings for post-processing,
  #  e.g., with the "tight" defaults and larger basis sets.
  #
  ################################################################################
    species        Pd
  #     global species definitions
      nucleus             46
      mass                106.42
  #
      l_hartree           4
  #
      cut_pot             3.5  1.5  1.0
      basis_dep_cutoff    1e-4
  #
      radial_base         62 5.0
      radial_multiplier   1
      angular_grids specified
        division   0.5211   50
        division   0.9161  110
        division   1.2296  194
        division   1.5678  302
  #      division   1.9785  434
  #      division   2.0474  590
  #      division   2.1195  770
  #      division   2.1568  974
  #      division   2.7392 1202
  #       outer_grid  974
         outer_grid  302
  ################################################################################
  #
  #  Definition of "minimal" basis
  #
  ################################################################################
  #     valence basis states
      valence      5  s   1.
      valence      4  p   6.
      valence      4  d   9.
  #     ion occupancy
      ion_occ     5  s   0.
      ion_occ     4  p   6.
      ion_occ     4  d   8.
  ################################################################################
  #
  #  Suggested additional basis functions. For production calculations,
  #  uncomment them one after another (the most important basis functions are
  #  listed first).
  #
  #  Constructed for dimers: 2.0 A, 2.275 A, 2.75 A, 3.75 A
  #
  ################################################################################
  #  "First tier" - max. impr. -120.76  meV, min. impr. -5.71 meV
       ionic 5 p auto
       hydro 4 f 8
  #     hydro 5 g 10
       hydro 3 s 2.6
       hydro 3 d 2.5
  #  "Second tier" - max. impr. -5.00  meV, min. impr. -0.62 meV
  #     hydro 5 f 17.2
  #     hydro 6 h 14
  #     hydro 4 d 4
  #     hydro 5 f 7.6
  #     hydro 3 p 3.3
  #     hydro 4 s 9.4
  #  "Third tier" - max. impr. -0.54  meV, min. impr. -0.14 meV
  #     hydro 4 f 20
  #     hydro 5 g 12.8
  #     hydro 5 d 9.8
  #     hydro 6 h 15.2
  #     hydro 5 s 10
  #     hydro 6 p 9.8
  #  "Fourth tier" - max. impr. -0.15  meV, min. impr. -0.05 meV
  #     hydro 5 f 9.2
  #     hydro 2 s 5.6
  #     hydro 5 f 43.2
  #     hydro 5 d 13.2
  #     hydro 5 g 14
  #     hydro 4 p 4.7
  plus_u 4 d 0
  hubbard_coefficient 1 0 0 0
  
  -----------------------------------------------------------------------
  Completed first pass over input file control.in .
  -----------------------------------------------------------------------
  
  
  -----------------------------------------------------------------------
  Parsing geometry.in (first pass over file, find array dimensions only).
  The contents of geometry.in will be repeated verbatim below
  unless switched off by setting 'verbatim_writeout .false.' .
  in the first line of geometry.in .
  -----------------------------------------------------------------------
  
  #=======================================================
  # FHI-aims file: ./geometry.in
  # Created using the Atomic Simulation Environment (ASE)
  # Wed Jul 17 01:04:53 2024
  #=======================================================
  lattice_vector 11.3550000000000004 0.0000000000000000 0.0000000000000000
  lattice_vector 0.0000000000000000 11.3550000000000004 0.0000000000000000
  lattice_vector 0.0000000000000000 0.0000000000000000 28.5398999999999958
  atom_frac 0.1666908118919763 0.2500952872481384 0.2916926107421123 Ti
  atom_frac 0.0000431402713087 0.2499919904766706 0.2083433799890413 Ti
  atom_frac 0.1666671800975329 0.0833333383045223 0.0416663638077693 Ti
  atom_frac -0.0000010152167100 0.0833333482332589 0.1250016025627688 Ti
  atom_frac 0.1666608923857696 0.2499975626768213 0.0273707331463222 O
  atom_frac 0.0000565895903731 0.2500131244210528 0.2773836825144965 O
  atom_frac 0.1666971702236923 0.0833332953164450 0.3059813223035733 O
  atom_frac -0.0000024587863776 0.0833333349203218 0.0559633584099165 O
  atom_frac 0.0000090716948795 0.0833333593689162 0.1940440527836430 O
  atom_frac 0.1666627150641809 0.0833333673009824 0.1107031228094044 O
  atom_frac 0.0000054543688548 0.2499912735269739 0.1393011470897239 O
  atom_frac 0.1666753201683678 0.2500196764518883 0.2226374687566418 O
  atom_frac 0.1652061153481662 0.2501016984487986 0.6252457763344823 Ti
  atom_frac -0.0003679195599162 0.2496320589091891 0.5416668912582335 Ti
  atom_frac 0.1669329594161560 0.0833331817752680 0.3749568744849256 Ti
  atom_frac 0.0000444527587981 0.0833333596258284 0.4580809333594728 Ti
  atom_frac 0.1672219511058835 0.2500575796111444 0.3607179112065563 O
  atom_frac -0.0005221937210372 0.2501562517626039 0.6109116586687088 O
  atom_frac 0.1659623748720372 0.0833332685035040 0.6396027907476589 O
  atom_frac 0.0002178620680656 0.0833333807849361 0.3891310259565710 O
  atom_frac -0.0010869993088948 0.0833333321312751 0.5271359442632301 O
  atom_frac 0.1668322589095124 0.0833333679832198 0.4440601373284133 O
  atom_frac 0.0001559545326070 0.2494777758943766 0.4724214501730948 O
  atom_frac 0.1656610118613505 0.2480593659316372 0.5564463707381710 O
  atom_frac 0.1666382241263374 0.2499983028115839 0.9583331229639102 Ti
  atom_frac -0.0000080275373484 0.2500431637249803 0.8749903106560308 Ti
  atom_frac 0.1667200836545018 0.0833331852854365 0.7084613190195007 Ti
  atom_frac 0.0000213000857817 0.0833334752879080 0.7917262080717272 Ti
  atom_frac 0.1665259107828516 0.2501164121181543 0.6942869004142957 O
  atom_frac -0.0000087304800930 0.2500054181985605 0.9440318874822623 O
  atom_frac 0.1666637828579899 0.0833333407604170 0.9726261824612662 O
  atom_frac -0.0000241360399915 0.0833332848816314 0.7227121617959474 O
  atom_frac -0.0000190854328895 0.0833334117965410 0.8607242239098133 O
  atom_frac 0.1666784834056232 0.0833333333307112 0.7775189838201668 O
  atom_frac 0.0000131705223029 0.2500566377848224 0.8059493749235818 O
  atom_frac 0.1666527129594409 0.2500049057477766 0.8892951423791203 O
  atom_frac 0.1666756411445482 0.5833332944917087 0.2916666407797207 Ti
  atom_frac 0.0000474377974933 0.5833333382898929 0.2083082387780761 Ti
  atom_frac 0.1666685645616223 0.4166685001433314 0.0416662266578078 Ti
  atom_frac -0.0000017082201996 0.4166382171290082 0.1249998835988291 Ti
  atom_frac 0.1666615616056958 0.5833333439688057 0.0273734631245991 O
  atom_frac 0.0000520805977713 0.5833333308997348 0.2773526177152295 O
  atom_frac 0.1668709939860879 0.4167143735305940 0.3060000124793562 O
  atom_frac -0.0000024299042481 0.4166609353908576 0.0559629223235857 O
  atom_frac 0.0000048685512390 0.4166526988883633 0.1940385153275422 O
  atom_frac 0.1666634403806313 0.4166647466567632 0.1107044153674051 O
  atom_frac 0.0000040131398489 0.5833333339618791 0.1392886850916409 O
  atom_frac 0.1666771137388856 0.5833333062073759 0.2226290650740663 O
  atom_frac 0.1641446837810994 0.5833332597888967 0.6245530912008113 Ti
  atom_frac -0.0012895240840732 0.5833333425014612 0.5400171264696167 Ti
  atom_frac 0.1667373782992109 0.4167780787879982 0.3750822902121649 Ti
  atom_frac 0.0001016974738548 0.4152059883089783 0.4580872969173715 Ti
  atom_frac 0.1667225918235360 0.5833333072671361 0.3607541902631347 O
  atom_frac -0.0001339251325402 0.5833332682086603 0.6101681309869406 O
  atom_frac 0.1654541004691757 0.4163746618331677 0.6392293993602217 O
  atom_frac 0.0001164295625632 0.4165257376524246 0.3890467639616064 O
  atom_frac -0.0019405574308957 0.4156609011665979 0.5268873026000240 O
  atom_frac 0.1663746060776137 0.4154537488461059 0.4441036614402744 O
  atom_frac -0.0001322587191374 0.5833333361628090 0.4721131513157896 O
  atom_frac 0.1625820728555977 0.5833333551549817 0.5550800766611715 O
  atom_frac 0.1666503748921729 0.5833333367433210 0.9583320600645800 Ti
  atom_frac -0.0000127171010998 0.5833334105168194 0.8749912850625220 Ti
  atom_frac 0.1667781246953967 0.4167373638345397 0.7082513710120312 Ti
  atom_frac 0.0000952911482795 0.4166909276460720 0.7916404286620626 Ti
  atom_frac 0.1674914826841189 0.5833332811793523 0.6935455958427148 O
  atom_frac -0.0000071346563856 0.5833333547931745 0.9440397183779989 O
  atom_frac 0.1666646931192201 0.4166634269457244 0.9726286277919834 O
  atom_frac 0.0000575953349081 0.4172217684834644 0.7226157657500524 O
  atom_frac 0.0000196276735336 0.4166754129816403 0.8606961945388415 O
  atom_frac 0.1667144302143825 0.4168709651647738 0.7773330258322967 O
  atom_frac -0.0000367642604214 0.5833334115551958 0.8059675701108495 O
  atom_frac 0.1666579236854935 0.5833333794405755 0.8892982943172901 O
  atom_frac 0.1666907880540880 0.9165713302993947 0.2916926072612452 Ti
  atom_frac 0.0000430753325672 0.9166746840871751 0.2083433660048447 Ti
  atom_frac 0.1666685626620122 0.7499981866213217 0.0416674623122579 Ti
  atom_frac -0.0000017046178158 0.7500284482967011 0.1249998879820435 Ti
  atom_frac 0.1666608993018539 0.9166691219879094 0.0273707332303741 O
  atom_frac 0.0000565814244356 0.9166535024520390 0.2773836670456327 O
  atom_frac 0.1668710326861285 0.7499522086779197 0.3059999988636076 O
  atom_frac -0.0000024324483452 0.7500057555120271 0.0559629203883608 O
  atom_frac 0.0000048872159842 0.7500139520906813 0.1940385105804794 O
  atom_frac 0.1666634415950430 0.7500019000718535 0.1107044158241726 O
  atom_frac 0.0000054692225396 0.9166754048394332 0.1393011373156809 O
  atom_frac 0.1666753292090969 0.9166470079898519 0.2226374720030740 O
  atom_frac 0.1652061006052821 0.9165648109400052 0.6252457809918198 Ti
  atom_frac -0.0003679186317866 0.9170346257316470 0.5416668952564168 Ti
  atom_frac 0.1667373882854796 0.7498884825246830 0.3750822833124803 Ti
  atom_frac 0.0001017000461539 0.7514607339396127 0.4580873012147778 Ti
  atom_frac 0.1672218346485549 0.9166089913254418 0.3607179102137408 O
  atom_frac -0.0005221904453421 0.9165102801463905 0.6109116594982448 O
  atom_frac 0.1654540966127332 0.7502918689501116 0.6392294028560014 O
  atom_frac 0.0001164393856187 0.7501408841912316 0.3890467650261937 O
  atom_frac -0.0019405715407060 0.7510057743344231 0.5268872999907703 O
  atom_frac 0.1663746134163535 0.7512128678687654 0.4441036507003785 O
  atom_frac 0.0001560284180130 0.9171888958834541 0.4724214491883781 O
  atom_frac 0.1656610044150394 0.9186073090026859 0.5564463770620058 O
  atom_frac 0.1666382178772260 0.9166683844533609 0.9583331175597594 Ti
  atom_frac -0.0000080347357716 0.9166236524254733 0.8749903091998853 Ti
  atom_frac 0.1667781219213143 0.7499290299157721 0.7082513775177073 Ti
  atom_frac 0.0000952846856850 0.7499760017058548 0.7916404314088579 Ti
  atom_frac 0.1665259224001062 0.9165501431340514 0.6942869071195172 O
  atom_frac -0.0000087344940310 0.9166612831356948 0.9440318880425632 O
  atom_frac 0.1666646973461367 0.7500032641603747 0.9726286234115022 O
  atom_frac 0.0000575962051252 0.7494447967906149 0.7226157674022486 O
  atom_frac 0.0000196474682809 0.7499914137451927 0.8606961967890552 O
  atom_frac 0.1667144259428920 0.7497957648846608 0.7773330298260569 O
  atom_frac 0.0000131318652361 0.9166101871253155 0.8059493738710383 O
  atom_frac 0.1666527079934421 0.9166618683407642 0.8892951402563785 O
  atom_frac 0.4999758584383018 0.2500952674567710 0.2916925830504726 Ti
  atom_frac 0.3333333030843513 0.2499872367870329 0.2083424019966219 Ti
  atom_frac 0.4999994902013983 0.0833333354688575 0.0416663720845241 Ti
  atom_frac 0.3333333095781691 0.0833333375771155 0.1249978190097507 Ti
  atom_frac 0.5000057574301867 0.2499975828923928 0.0273707419979353 O
  atom_frac 0.3333333340962634 0.2499631082052833 0.2773654758226922 O
  atom_frac 0.4999695187974308 0.0833332939216078 0.3059813246041093 O
  atom_frac 0.3333333145315097 0.0833333441808521 0.0559596314076562 O
  atom_frac 0.3333332978069553 0.0833333370944354 0.1940360037139953 O
  atom_frac 0.5000039520115704 0.0833333023528032 0.1107031500583564 O
  atom_frac 0.3333332884888200 0.2499928771901496 0.1392933349959218 O
  atom_frac 0.4999913399419216 0.2500196480426728 0.2226374675833504 O
  atom_frac 0.5014604986158936 0.2501016929726577 0.6252457761255409 Ti
  atom_frac 0.3333332995899690 0.2487103207122484 0.5433164056140355 Ti
  atom_frac 0.4997337621849063 0.0833332990099572 0.3749568861699528 Ti
  atom_frac 0.3333333795853309 0.0833334649258800 0.4585780672121904 Ti
  atom_frac 0.4994447716155771 0.2500576011286046 0.3607179073798031 O
  atom_frac 0.3333333089775027 0.2498675926482708 0.6112198210499982 O
  atom_frac 0.5007042328631995 0.0833332713956721 0.6396027879254154 O
  atom_frac 0.3333333405482591 0.0833332302209906 0.3894847892249889 O
  atom_frac 0.3333333255261860 0.0833333580728508 0.5277507203781108 O
  atom_frac 0.4998344466182746 0.0833333328530352 0.4440601285749325 O
  atom_frac 0.3333333882368214 0.2498658492540244 0.4731646815636060 O
  atom_frac 0.5010056065349796 0.2480593863370366 0.5564463731465434 O
  atom_frac 0.5000284366827187 0.2499982748837137 0.9583331509424665 Ti
  atom_frac 0.3333333641608268 0.2500474426698410 0.8750254323039213 Ti
  atom_frac 0.4999465793235166 0.0833331848996436 0.7084613155492436 Ti
  atom_frac 0.3333333382190252 0.0833333983880957 0.7917606737727162 Ti
  atom_frac 0.5001407561398111 0.2501164050871719 0.6942868960707008 O
  atom_frac 0.3333333362161496 0.2500040392975428 0.9440443564749543 O
  atom_frac 0.5000028857369607 0.0833333379025259 0.9726262089761296 O
  atom_frac 0.3333333333307890 0.0833332302741609 0.7226994460898751 O
  atom_frac 0.3333333433114635 0.0833333579140112 0.8607547268718765 O
  atom_frac 0.4999881771734398 0.0833333311213188 0.7775189855321237 O
  atom_frac 0.3333333287080385 0.2500521021667353 0.8059804301738398 O
  atom_frac 0.5000139633395345 0.2500048597267684 0.8892951409575695 O
  atom_frac 0.4999910373833924 0.5833333133408795 0.2916666151168842 Ti
  atom_frac 0.3333333074513766 0.5833333320296129 0.2083258435534941 Ti
  atom_frac 0.4999981071614284 0.4166686205741218 0.0416668348724532 Ti
  atom_frac 0.3333333220744162 0.4166503855239245 0.1250009705272225 Ti
  atom_frac 0.5000051341650095 0.5833333485401356 0.0273734788573858 O
  atom_frac 0.3333333361442507 0.5833332757869139 0.2773544669502527 O
  atom_frac 0.4997956751224075 0.4167143754178946 0.3059999936228889 O
  atom_frac 0.3333333426074921 0.4166616164584110 0.0559601891167361 O
  atom_frac 0.3333333107615391 0.4166579172899513 0.1940353848745559 O
  atom_frac 0.5000032250311512 0.4166647094491621 0.1107044233212113 O
  atom_frac 0.3333333565707597 0.5833333332315790 0.1392902907748665 O
  atom_frac 0.4999895519482978 0.5833333496123493 0.2226290674169848 O
  atom_frac 0.5025219720786425 0.5833332561140770 0.6245530926198016 Ti
  atom_frac 0.3333333258710447 0.5833333617798191 0.5416663908068006 Pd
  atom_frac 0.4999293213568816 0.4167780786124236 0.3750822854902688 Ti
  atom_frac 0.3333333764028527 0.4141443782153093 0.4587797033932239 Ti
  atom_frac 0.4999441154009228 0.5833332839604061 0.3607541880346913 O
  atom_frac 0.3333333124031402 0.5833332688105485 0.6108490072032269 O
  atom_frac 0.5012125271922357 0.4163746588322894 0.6392293936229201 O
  atom_frac 0.3333333733122568 0.4174919590222814 0.3897879120206033 O
  atom_frac 0.3333333153780949 0.4125817927184210 0.5282530929973627 O
  atom_frac 0.5002920996331258 0.4154537348592529 0.4441036358541551 O
  atom_frac 0.3333334159465998 0.5833333652332695 0.4724835842731659 O
  atom_frac 0.5040845606069747 0.5833333432821014 0.5550800819409383 O
  atom_frac 0.5000163051122353 0.5833333454426273 0.9583320849032573 Ti
  atom_frac 0.3333332435732171 0.5833333580298312 0.8750078497614588 Ti
  atom_frac 0.4998885442833705 0.4167373619980999 0.7082513680574148 Ti
  atom_frac 0.3333333383077104 0.4166756978129997 0.7916663833901210 Ti
  atom_frac 0.4991751804949283 0.5833332814790040 0.6935455917894026 O
  atom_frac 0.3333333379549427 0.5833333286005358 0.9440427965670349 O
  atom_frac 0.5000019636900821 0.4166634254052907 0.9726286253832552 O
  atom_frac 0.3333333284501256 0.4167229351197835 0.7225794311651479 O
  atom_frac 0.3333333752152689 0.4166771293235355 0.8607045868320197 O
  atom_frac 0.4999522320585363 0.4168708970842752 0.7773330247341436 O
  atom_frac 0.3333333639811060 0.5833333704623674 0.8059785980248033 O
  atom_frac 0.5000087280546122 0.5833333797902404 0.8892982997385739 O
  atom_frac 0.4999758616929332 0.9165713321771641 0.2916925826496137 Ti
  atom_frac 0.3333334196084289 0.9166794364750430 0.2083424050266389 Ti
  atom_frac 0.4999981010730569 0.7499980692602106 0.0416668358006608 Ti
  atom_frac 0.3333333180127311 0.7500162872512899 0.1250009745055125 Ti
  atom_frac 0.5000057670313863 0.9166690972801529 0.0273707394122435 O
  atom_frac 0.3333333324665234 0.9167035117879467 0.2773654761212998 O
  atom_frac 0.4997956525977680 0.7499522086410237 0.3060000027329502 O
  atom_frac 0.3333333490307585 0.7500050617858484 0.0559601925042732 O
  atom_frac 0.3333332824416473 0.7500087436429599 0.1940353897248926 O
  atom_frac 0.5000032245761566 0.7500020023326233 0.1107044263066266 O
  atom_frac 0.3333332529890176 0.9166737938351426 0.1392933381143636 O
  atom_frac 0.4999913563854301 0.9166469933089408 0.2226374640293746 O
  atom_frac 0.5014605047578037 0.9165648206803716 0.6252457803639038 Ti
  atom_frac 0.3333332959927822 0.9179564106675576 0.5433164129658430 Ti
  atom_frac 0.4999293175406898 0.7498883684544855 0.3750822946363735 Ti
  atom_frac 0.3333333692101971 0.7525225705014112 0.4587797059005532 Ti
  atom_frac 0.4994448429651979 0.9166089934992037 0.3607178997824693 O
  atom_frac 0.3333333051428151 0.9167989048327351 0.6112198148136164 O
  atom_frac 0.5012125296450018 0.7502918690325064 0.6392293964614505 O
  atom_frac 0.3333333393118710 0.7491747013555438 0.3897879038305468 O
  atom_frac 0.3333333312117024 0.7540849484362224 0.5282530794013911 O
  atom_frac 0.5002920938314857 0.7512129178992437 0.4441036407556885 O
  atom_frac 0.3333333239350640 0.9168009039702517 0.4731646723736013 O
  atom_frac 0.5010056083219161 0.9186073031824545 0.5564463769558771 O
  atom_frac 0.5000284429013204 0.9166684039558481 0.9583331465441082 Ti
  atom_frac 0.3333333649193150 0.9166192650070810 0.8750254392313079 Ti
  atom_frac 0.4998885465367051 0.7499290321896527 0.7082513734147513 Ti
  atom_frac 0.3333333427018235 0.7499911387152297 0.7916663854234142 Ti
  atom_frac 0.5001407467714043 0.9165501499951046 0.6942869016788584 O
  atom_frac 0.3333333387320790 0.9166626317958282 0.9440443485627604 O
  atom_frac 0.5000019586401639 0.7500032686317964 0.9726286262710858 O
  atom_frac 0.3333333287095591 0.7499434930550676 0.7225794380043203 O
  atom_frac 0.3333333740918240 0.7499895904233342 0.8607045927447198 O
  atom_frac 0.4999522369117896 0.7497958351310998 0.7773330285932174 O
  atom_frac 0.3333333271290000 0.9166146130294935 0.8059804304730492 O
  atom_frac 0.5000139677944945 0.9166619140187779 0.8892951384028573 O
  atom_frac 0.8333333349268576 0.2500212972063320 0.2916068271827313 Ti
  atom_frac 0.6666235643897246 0.2499919883189896 0.2083433724211051 Ti
  atom_frac 0.8333333336008276 0.0833333391721031 0.0416668433466036 Ti
  atom_frac 0.6666677104024243 0.0833333391200799 0.1250015925581422 Ti
  atom_frac 0.8333333547374085 0.2499975300462259 0.0273702993000888 O
  atom_frac 0.6666100893471859 0.2500131347881923 0.2773836646402338 O
  atom_frac 0.8333333287400069 0.0833333382596817 0.3058490181265631 O
  atom_frac 0.6666691491308879 0.0833333520787855 0.0559633721833201 O
  atom_frac 0.6666576386213859 0.0833333250570794 0.1940440607645728 O
  atom_frac 0.8333333380526740 0.0833333348447169 0.1107061845755073 O
  atom_frac 0.6666612627808132 0.2499912746527963 0.1393011418388334 O
  atom_frac 0.8333333509926381 0.2499809461954284 0.2226094503274156 O
  atom_frac 0.8333332935056401 0.2500444375519811 0.6252521546869491 Ti
  atom_frac 0.6670345116783700 0.2496320544152645 0.5416668914802993 Ti
  atom_frac 0.8333333542139318 0.0833333498708926 0.3748758477647112 Ti
  atom_frac 0.6666222849944708 0.0833333535596272 0.4580809203946348 Ti
  atom_frac 0.8333333424659372 0.2499758520718462 0.3606215080974075 O
  atom_frac 0.6671888031145461 0.2501562494420383 0.6109116591302566 O
  atom_frac 0.8333333027466143 0.0833332951759501 0.6395561591699662 O
  atom_frac 0.6664488477252624 0.0833333503070251 0.3891310276091391 O
  atom_frac 0.6677535746440909 0.0833333396637286 0.5271359431723942 O
  atom_frac 0.8333333444132310 0.0833333060856997 0.4437768865322796 O
  atom_frac 0.6665106988397319 0.2494777735212680 0.4724214458815908 O
  atom_frac 0.8333332971795834 0.2489126922596883 0.5561977448851508 O
  atom_frac 0.8333333429310447 0.2499989715910392 0.9583314283194833 Ti
  atom_frac 0.6666746688974823 0.2500431696598338 0.8749903198667415 Ti
  atom_frac 0.8333333357087201 0.0833332545717743 0.7084578403700137 Ti
  atom_frac 0.6666453617186168 0.0833334759759404 0.7917262128099724 Ti
  atom_frac 0.8333333195085257 0.2502178453629465 0.6942026262979240 O
  atom_frac 0.6666753991357399 0.2500054335757528 0.9440319083982387 O
  atom_frac 0.8333333364862373 0.0833333450026390 0.9726268630269740 O
  atom_frac 0.6666907928786699 0.0833332855182583 0.7227121595426912 O
  atom_frac 0.6666857460642234 0.0833334120572250 0.8607242326078767 O
  atom_frac 0.8333333338031927 0.0833334686248409 0.7774840178692354 O
  atom_frac 0.6666535021469496 0.2500566375190602 0.8059493867427160 O
  atom_frac 0.8333333285363999 0.2500091106422055 0.8892896002664435 O
  atom_frac 0.8333333271618080 0.5833333381538199 0.2915723641801672 Ti
  atom_frac 0.6666192632734030 0.5833333357470311 0.2083082301798791 Ti
  atom_frac 0.8333333315758302 0.4166671668038515 0.0416673113533900 Ti
  atom_frac 0.6666683911623266 0.4166382133738074 0.1249998909290257 Ti
  atom_frac 0.8333333087622705 0.5833333486202102 0.0273740273393344 O
  atom_frac 0.6666145947402626 0.5833333164535711 0.2773525952267993 O
  atom_frac 0.8333333407914744 0.4166784773045839 0.3058140536832117 O
  atom_frac 0.6666690919511521 0.4166609045540772 0.0559629231582724 O
  atom_frac 0.6666618283352106 0.4166527061360940 0.1940385105406367 O
  atom_frac 0.8333333395145943 0.4166637872274395 0.1107068419707060 O
  atom_frac 0.6666626359518698 0.5833333333243143 0.1392886767126777 O
  atom_frac 0.8333333445056916 0.5833333468791517 0.2225789301021652 O
  atom_frac 0.8333333127287266 0.5833333001351432 0.6247546922798236 Ti
  atom_frac 0.6679561481987020 0.5833333481756096 0.5400171234070296 Ti
  atom_frac 0.8333333539021978 0.4167200845168998 0.3748723505627432 Ti
  atom_frac 0.6665650058730298 0.4152059839483868 0.4580872933598434 Ti
  atom_frac 0.8333333484459688 0.5833333295495952 0.3606342145556543 O
  atom_frac 0.6668005552475095 0.5833332710035780 0.6101681318265502 O
  atom_frac 0.8333333061734138 0.4168323780828543 0.6392728974259819 O
  atom_frac 0.6665502453112599 0.4165257446601426 0.3890467579520792 O
  atom_frac 0.6686071574064768 0.4156609033187006 0.5268872924096053 O
  atom_frac 0.8333333430418275 0.4159625901592236 0.4437302374915852 O
  atom_frac 0.6667989264039864 0.5833333360609492 0.4721131459028075 O
  atom_frac 0.8333333027973254 0.5833333392177596 0.5555828321665079 O
  atom_frac 0.8333333237714732 0.5833333436726359 0.9583352277558402 Ti
  atom_frac 0.6666794788664089 0.5833334104393912 0.8749912780259398 Ti
  atom_frac 0.8333333323331169 0.4169330648020164 0.7083767744509537 Ti
  atom_frac 0.6665713733090713 0.4166909194976670 0.7916404438340547 Ti
  atom_frac 0.8333333426988397 0.5833332881973395 0.6938488212570174 O
  atom_frac 0.6666738017298750 0.5833333518604362 0.9440397158079901 O
  atom_frac 0.8333333481666151 0.4166627031568137 0.9726299106329918 O
  atom_frac 0.6666090725992425 0.4172217851934337 0.7226157578844544 O
  atom_frac 0.6666470017732289 0.4166753783055161 0.8606961974798918 O
  atom_frac 0.8333333365116716 0.4166972757112949 0.7773517337904468 O
  atom_frac 0.6667034025808820 0.5833334128325193 0.8059675653865246 O
  atom_frac 0.8333333533884968 0.5833334220822846 0.8892976721957934 O
  atom_frac 0.8333333551736097 0.9166453797173607 0.2916068332571308 Ti
  atom_frac 0.6666235142661671 0.9166746886174232 0.2083433741378111 Ti
  atom_frac 0.8333333395510676 0.7499995234588007 0.0416673143124293 Ti
  atom_frac 0.6666683913431422 0.7500284611598388 0.1249998869628655 Ti
  atom_frac 0.8333333380780450 0.9166691599300066 0.0273703008237727 O
  atom_frac 0.6666101002015524 0.9166535064784220 0.2773836714866872 O
  atom_frac 0.8333333259528045 0.7499881891830910 0.3058140593535569 O
  atom_frac 0.6666690880400890 0.7500057691396739 0.0559629280696602 O
  atom_frac 0.6666618382449635 0.7500139790767116 0.1940385124914814 O
  atom_frac 0.8333333387127220 0.7500028951174484 0.1107068443484790 O
  atom_frac 0.6666612837090611 0.9166754043356660 0.1393011473994008 O
  atom_frac 0.8333333264445263 0.9166857378851190 0.2226094396367253 O
  atom_frac 0.8333333025578133 0.9166221619674695 0.6252521667470121 Ti
  atom_frac 0.6670345136121367 0.9170346254906556 0.5416668977908444 Ti
  atom_frac 0.8333333486947838 0.7499465672999929 0.3748723539416564 Ti
  atom_frac 0.6665650121478678 0.7514607425123015 0.4580872886951711 Ti
  atom_frac 0.8333333872232668 0.9166908294043216 0.3606215080784163 O
  atom_frac 0.6671888039309360 0.9165102794625248 0.6109116652273254 O
  atom_frac 0.8333333071981583 0.7498342061630900 0.6392729012810665 O
  atom_frac 0.6665502696069738 0.7501409078576976 0.3890467648135941 O
  atom_frac 0.6686071598052193 0.7510057658713462 0.5268872966043866 O
  atom_frac 0.8333333424267336 0.7507040968871909 0.4437302456354875 O
  atom_frac 0.6665106906620614 0.9171888986866513 0.4724214483749499 O
  atom_frac 0.8333333030422480 0.9177539801938549 0.5561977404581403 O
  atom_frac 0.8333333432765463 0.9166677096262147 0.9583314276670614 Ti
  atom_frac 0.6666746749567516 0.9166236463033721 0.8749903180551243 Ti
  atom_frac 0.8333333325737597 0.7497333824066922 0.7083767774010569 Ti
  atom_frac 0.6665713757537967 0.7499760094164570 0.7916404448031249 Ti
  atom_frac 0.8333333172495193 0.9164487459704931 0.6942026255369629 O
  atom_frac 0.6666754005400680 0.9166612705995181 0.9440319077462481 O
  atom_frac 0.8333333488994084 0.7500039990245989 0.9726299128226197 O
  atom_frac 0.6666090713484945 0.7494447794824440 0.7226157587903823 O
  atom_frac 0.6666469831151857 0.7499914480993308 0.8606961993585069 O
  atom_frac 0.8333333358608084 0.7499695871563796 0.7773517343019617 O
  atom_frac 0.6666535423248969 0.9166101860893586 0.8059493849275752 O
  atom_frac 0.8333333289365104 0.9166576968259916 0.8892895977956009 O
  
  -----------------------------------------------------------------------
  Completed first pass over input file geometry.in .
  -----------------------------------------------------------------------
  

  Basic array size parameters:
  | Number of species                 :        3
  | Number of atoms                   :      324
  | Number of lattice vectors         :        3
  | Max. basis fn. angular momentum   :        3
  | Max. atomic/ionic basis occupied n:        5
  | Max. number of basis fn. types    :        3
  | Max. radial fns per species/type  :       10
  | Max. logarithmic grid size        :     1444
  | Max. radial integration grid size :       62
  | Max. angular integration grid size:      302
  | Max. angular grid division number :        8
  | Radial grid for Hartree potential :     1444
  | Number of spin channels           :        1
  | Max. number of (n,l) shells per species with '+U' treatment:        1

------------------------------------------------------------
          Reading file control.in.
------------------------------------------------------------
  Spin treatment: No spin polarisation.
  Scalar relativistic treatment of kinetic energy: on-site free-atom approximation to ZORA.
  Forces will be computed.
  XC: Using LibXC. Please refer to LibXC output for further details.
  Using libxc - Initializing
  Libxc version: 6.1.0


  ** PLEASE ** be careful using LibXC. Whilst most of the LDA, GGA and MGGA functionals,
  and hybrid variations therein, should be stable (though we always recommend testing!),
  there are several fancy functionals with e.g. range-separation, like HSE03/HSE06/LC-PBEh,
  and also MGGA functionals that depend on the laplacian of the density, like BR89,
  that are not fully implemented due to the infrastrucutre for these functionals being incomplete or non-generic.
  If you want to use these functionals please contact the development team and we will work on them with you!

  You have selected libxc functional MGGA_X_MBEEF (249)
    - Description: mBEEF exchange
    - Type: MGGA(Exchange)
    - Reference to Literature:
      [1] J. Wellendorff, K. T. Lundgaard, K. W. Jacobsen, and T. Bligaard.,  J. Chem. Phys. 140, 144107 (2014)

  You have selected libxc functional GGA_C_PBE_SOL (133)
    - Description: Perdew, Burke & Ernzerhof SOL
    - Type: GGA(Correlation)
    - Reference to Literature:
      [1] J. P. Perdew, A. Ruzsinszky, G. I. Csonka, O. A. Vydrov, G. E. Scuseria, L. A. Constantin, X. Zhou, and K. Burke.,  Phys. Rev. Lett. 100, 136406 (2008)

  Switching on meta-ggas
  Found k-point grid:         4         4         2
  Occupation type: Gaussian broadening, width =   0.100000E+00 eV.
  Fixing petukhov mixing factor to   1.000000000000
  hydrogenic basis funktions also used for DFT+U reference states
  Reading DFT+U occupation matrix, from file
  Reading DFT+U occupation matrix, from file
  DFT+U occupation matrix, is again calculated if total energy is converged within   0.001000000000
  Calculating density of states with
  | energy interval :-18.000000  0.000000
  | points & broadening :   200  0.100000
  Calculating atom-projected density of states with
  | energy interval :-18.000000  0.000000
  | points & broadening :   200  0.100000
  Convergence accuracy of total energy:  0.1000E-05
  Convergence accuracy of sum of eigenvalues:  0.1000E-02
  Convergence accuracy of self-consistent charge density:  0.1000E-05
  Convergence accuracy of forces:  0.1000E-03
 
  Reading configuration options for species Ti                  .
  | Found nuclear charge :  22.0000
  | Found atomic mass :    47.8670000000000      amu
  | Found l_max for Hartree potential  :   4
  | Found cutoff potl. onset [A], width [A], scale factor :    3.50000    1.50000    1.00000
  | Threshold for basis-dependent cutoff potential is   0.100000E-03
  | Found data for basic radial integration grid :    48 points, outermost radius =    5.000 A
  | Found multiplier for basic radial grid :   1
  | Found angular grid specification: user-specified.
  | Specified grid contains     5 separate shells.
  | Check grid settings after all constraints further below.
  | Found free-atom valence shell :  4 s   2.000
  | Found free-atom valence shell :  3 p   6.000
  | Found free-atom valence shell :  3 d   2.000
  | Found free-ion valence shell :  4 s   1.000
  | Found free-ion valence shell :  3 p   6.000
  | Found free-ion valence shell :  3 d   1.000
  | Found hydrogenic basis function :  4 f   8.000
  | Found hydrogenic basis function :  3 d   2.700
  | Found ionic basis function :  4 p , default cutoff radius.
  | Found ionic basis function :  4 s , default cutoff radius.
  | Found request for '+U' treatment for  3 d shell, U =     2.575000 eV.
  | Found coefficents for linear combination of hubbard projectors 
  Species Ti                  : Missing cutoff potential type.
  Defaulting to exp(1/x)/(1-x)^2 type cutoff potential.
  Species Ti: No 'logarithmic' tag. Using default grid for free atom:
  | Default logarithmic grid data [bohr] : 0.1000E-03 0.1000E+03 0.1012E+01
  | Will include ionic basis functions of  2.0-fold positive Ti                   ion.
  Species Ti: On-site basis accuracy parameter (for Gram-Schmidt orthonormalisation) not specified.
  Using default value basis_acc =  0.1000000E-03.
  Species Ti                  : Using default innermost maximum threshold i_radial=  2 for radial functions.
  Species Ti                  : Default cutoff onset for free atom density etc. : 0.35000000E+01 AA.
  Species Ti                  : Basic radial grid will be enhanced according to radial_multiplier =   1, to contain    48 grid points.
 
  Reading configuration options for species O                   .
  | Found nuclear charge :   8.0000
  | Found atomic mass :    15.9994000000000      amu
  | Found l_max for Hartree potential  :   4
  | Found cutoff potl. onset [A], width [A], scale factor :    3.50000    1.50000    1.00000
  | Threshold for basis-dependent cutoff potential is   0.100000E-03
  | Found data for basic radial integration grid :    36 points, outermost radius =    5.000 A
  | Found multiplier for basic radial grid :   1
  | Found angular grid specification: user-specified.
  | Specified grid contains     5 separate shells.
  | Check grid settings after all constraints further below.
  | Found free-atom valence shell :  2 s   2.000
  | Found free-atom valence shell :  2 p   4.000
  | Found free-ion valence shell :  2 s   1.000
  | Found free-ion valence shell :  2 p   3.000
  | Found hydrogenic basis function :  2 p   1.800
  | Found hydrogenic basis function :  3 d   7.600
  | Found hydrogenic basis function :  3 s   6.400
  Species O                   : Missing cutoff potential type.
  Defaulting to exp(1/x)/(1-x)^2 type cutoff potential.
  Species O : No 'logarithmic' tag. Using default grid for free atom:
  | Default logarithmic grid data [bohr] : 0.1000E-03 0.1000E+03 0.1012E+01
  Species O : On-site basis accuracy parameter (for Gram-Schmidt orthonormalisation) not specified.
  Using default value basis_acc =  0.1000000E-03.
  Species O                   : Using default innermost maximum threshold i_radial=  2 for radial functions.
  Species O                   : Default cutoff onset for free atom density etc. : 0.35000000E+01 AA.
  Species O                   : Basic radial grid will be enhanced according to radial_multiplier =   1, to contain    36 grid points.
 
  Reading configuration options for species Pd                  .
  | Found nuclear charge :  46.0000
  | Found atomic mass :    106.420000000000      amu
  | Found l_max for Hartree potential  :   4
  | Found cutoff potl. onset [A], width [A], scale factor :    3.50000    1.50000    1.00000
  | Threshold for basis-dependent cutoff potential is   0.100000E-03
  | Found data for basic radial integration grid :    62 points, outermost radius =    5.000 A
  | Found multiplier for basic radial grid :   1
  | Found angular grid specification: user-specified.
  | Specified grid contains     5 separate shells.
  | Check grid settings after all constraints further below.
  | Found free-atom valence shell :  5 s   1.000
  | Found free-atom valence shell :  4 p   6.000
  | Found free-atom valence shell :  4 d   9.000
  | Found free-ion valence shell :  5 s   0.000
  | Found free-ion valence shell :  4 p   6.000
  | Found free-ion valence shell :  4 d   8.000
  | Found ionic basis function :  5 p , default cutoff radius.
  | Found hydrogenic basis function :  4 f   8.000
  | Found hydrogenic basis function :  3 s   2.600
  | Found hydrogenic basis function :  3 d   2.500
  | Found request for '+U' treatment for  4 d shell, U =     0.000000 eV.
  | Found coefficents for linear combination of hubbard projectors 
  Species Pd                  : Missing cutoff potential type.
  Defaulting to exp(1/x)/(1-x)^2 type cutoff potential.
  Species Pd: No 'logarithmic' tag. Using default grid for free atom:
  | Default logarithmic grid data [bohr] : 0.1000E-03 0.1000E+03 0.1012E+01
  | Will include ionic basis functions of  2.0-fold positive Pd                   ion.
  Species Pd: On-site basis accuracy parameter (for Gram-Schmidt orthonormalisation) not specified.
  Using default value basis_acc =  0.1000000E-03.
  Species Pd                  : Using default innermost maximum threshold i_radial=  2 for radial functions.
  Species Pd                  : Default cutoff onset for free atom density etc. : 0.35000000E+01 AA.
  Species Pd                  : Basic radial grid will be enhanced according to radial_multiplier =   1, to contain    62 grid points.
 
  Finished reading input file 'control.in'.
 
------------------------------------------------------------


------------------------------------------------------------
          Reading geometry description geometry.in.
------------------------------------------------------------
  | The smallest distance between any two atoms is         1.90977610 AA.
  | The first atom of this pair is atom number                    168 .
  | The second atom of this pair is atom number                   266 .
  | Wigner-Seitz cell of the first atom image           0     0     0 .
  | (The Wigner-Seitz cell of the second atom is 0 0 0  by definition.)

  Symmetry information by spglib:
  | Precision set to  0.1E-04
  | Number of Operations  : 1
  | Space group           : 1
  | International         : P1 9R   Sei
  | Schoenflies           : C1^1
  Input structure read successfully.
  The structure contains      324 atoms,  and a total of       4128.000 electrons.

  Input geometry:
  | Unit cell:
  |       11.35500000        0.00000000        0.00000000
  |        0.00000000       11.35500000        0.00000000
  |        0.00000000        0.00000000       28.53990000
  | Atomic structure:
  |       Atom                x [A]            y [A]            z [A]
  |    1: Species Ti            1.89277417        2.83983199        8.32487794
  |    2: Species Ti            0.00048986        2.83865905        5.94609923
  |    3: Species Ti            1.89250583        0.94625006        1.18915386
  |    4: Species Ti           -0.00001153        0.94625017        3.56753324
  |    5: Species O             1.89243443        2.83872232        0.78115799
  |    6: Species O             0.00064257        2.83889903        7.91650256
  |    7: Species O             1.89284637        0.94624957        8.73267634
  |    8: Species O            -0.00002792        0.94625002        1.59718865
  |    9: Species O             0.00010301        0.94625030        5.53799786
  |   10: Species O             1.89245513        0.94625039        3.15945605
  |   11: Species O             0.00006193        2.83865091        3.97564081
  |   12: Species O             1.89259826        2.83897343        6.35405109
  |   13: Species Ti            1.87591544        2.83990479       17.84445193
  |   14: Species Ti           -0.00417773        2.83457203       15.45911891
  |   15: Species Ti            1.89552375        0.94624828       10.70123170
  |   16: Species Ti            0.00050476        0.94625030       13.07358403
  |   17: Species O             1.89880525        2.83940382       10.29485311
  |   18: Species O            -0.00592951        2.84052424       17.43535765
  |   19: Species O             1.88450277        0.94624926       18.25419969
  |   20: Species O             0.00247382        0.94625054       11.10576057
  |   21: Species O            -0.01234288        0.94624999       15.04440714
  |   22: Species O             1.89438030        0.94625039       12.67343191
  |   23: Species O             0.00177086        2.83282015       13.48286095
  |   24: Species O             1.88108079        2.81671410       15.88092378
  |   25: Species Ti            1.89217703        2.83873073       27.35073150
  |   26: Species Ti           -0.00009115        2.83924012       24.97213597
  |   27: Species Ti            1.89310655        0.94624832       20.21941520
  |   28: Species Ti            0.00024186        0.94625161       22.59578681
  |   29: Species O             1.89090172        2.84007186       19.81487871
  |   30: Species O            -0.00009913        2.83881152       26.94257567
  |   31: Species O             1.89246725        0.94625008       27.75865398
  |   32: Species O            -0.00027406        0.94624945       20.62613283
  |   33: Species O            -0.00021672        0.94625089       24.56498328
  |   34: Species O             1.89263418        0.94625000       22.19031405
  |   35: Species O             0.00014955        2.83939312       23.00171457
  |   36: Species O             1.89234156        2.83880570       25.38039443
  |   37: Species Ti            1.89260191        6.62374956        8.32413676
  |   38: Species Ti            0.00053866        6.62375006        5.94509630
  |   39: Species Ti            1.89252155        4.73127082        1.18914994
  |   40: Species Ti           -0.00001940        4.73092696        3.56748418
  |   41: Species O             1.89244203        6.62375012        0.78123590
  |   42: Species O             0.00059138        6.62374997        7.91561597
  |   43: Species O             1.89482014        4.73179171        8.73320976
  |   44: Species O            -0.00002759        4.73118492        1.59717621
  |   45: Species O             0.00005528        4.73109140        5.53783982
  |   46: Species O             1.89246337        4.73122820        3.15949294
  |   47: Species O             0.00004557        6.62375001        3.97528514
  |   48: Species O             1.89261863        6.62374969        6.35381125
  |   49: Species Ti            1.86386288        6.62374916       17.82468277
  |   50: Species Ti           -0.01464255        6.62375010       15.41203479
  |   51: Species Ti            1.89330293        4.73251508       10.70481105
  |   52: Species Ti            0.00115477        4.71466400       13.07376565
  |   53: Species O             1.89313503        6.62374970       10.29588851
  |   54: Species O            -0.00152072        6.62374926       17.41413744
  |   55: Species O             1.87873131        4.72793429       18.24354313
  |   56: Species O             0.00132206        4.72964975       11.10335574
  |   57: Species O            -0.02203503        4.71982953       15.03731093
  |   58: Species O             1.88918365        4.71747732       12.67467409
  |   59: Species O            -0.00150180        6.62375003       13.47406213
  |   60: Species O             1.84611944        6.62375025       15.84192988
  |   61: Species Ti            1.89231501        6.62375004       27.35070116
  |   62: Species Ti           -0.00014440        6.62375088       24.97216378
  |   63: Species Ti            1.89376561        4.73205277       20.21342330
  |   64: Species Ti            0.00108203        4.73152548       22.59333867
  |   65: Species O             1.90186579        6.62374941       19.79372195
  |   66: Species O            -0.00008101        6.62375024       26.94279916
  |   67: Species O             1.89247759        4.73121321       27.75872377
  |   68: Species O             0.00065400        4.73755318       20.62338169
  |   69: Species O             0.00022287        4.73134931       24.56418332
  |   70: Species O             1.89304236        4.73356981       22.18500682
  |   71: Species O            -0.00041746        6.62375089       23.00223385
  |   72: Species O             1.89240072        6.62375052       25.38048439
  |   73: Species Ti            1.89277390       10.40766746        8.32487784
  |   74: Species Ti            0.00048912       10.40884104        5.94609883
  |   75: Species Ti            1.89252153        8.51622941        1.18918521
  |   76: Species Ti           -0.00001936        8.51657303        3.56748430
  |   77: Species O             1.89243451       10.40877788        0.78115799
  |   78: Species O             0.00064248       10.40860052        7.91650212
  |   79: Species O             1.89482058        8.51570733        8.73320937
  |   80: Species O            -0.00002762        8.51631535        1.59717615
  |   81: Species O             0.00005549        8.51640843        5.53783969
  |   82: Species O             1.89246338        8.51627158        3.15949296
  |   83: Species O             0.00006210       10.40884922        3.97564053
  |   84: Species O             1.89259836       10.40852678        6.35405119
  |   85: Species Ti            1.87591527       10.40759343       17.84445206
  |   86: Species Ti           -0.00417772       10.41292818       15.45911902
  |   87: Species Ti            1.89330304        8.51498372       10.70481086
  |   88: Species Ti            0.00115480        8.53283663       13.07376577
  |   89: Species O             1.89880393       10.40809510       10.29485309
  |   90: Species O            -0.00592947       10.40697423       17.43535767
  |   91: Species O             1.87873127        8.51956417       18.24354323
  |   92: Species O             0.00132217        8.51784974       11.10335577
  |   93: Species O            -0.02203519        8.52767057       15.03731085
  |   94: Species O             1.88918374        8.53002211       12.67467378
  |   95: Species O             0.00177170       10.41467991       13.48286092
  |   96: Species O             1.88108071       10.43078599       15.88092396
  |   97: Species Ti            1.89217696       10.40876951       27.35073134
  |   98: Species Ti           -0.00009123       10.40826157       24.97213593
  |   99: Species Ti            1.89376557        8.51544413       20.21342349
  |  100: Species Ti            0.00108196        8.51597750       22.59333875
  |  101: Species O             1.89090185       10.40742688       19.81487890
  |  102: Species O            -0.00009918       10.40868887       26.94257568
  |  103: Species O             1.89247764        8.51628706       27.75872365
  |  104: Species O             0.00065400        8.50994567       20.62338174
  |  105: Species O             0.00022310        8.51615250       24.56418339
  |  106: Species O             1.89304231        8.51393091       22.18500694
  |  107: Species O             0.00014911       10.40810867       23.00171454
  |  108: Species O             1.89234150       10.40869552       25.38039437
  |  109: Species Ti            5.67722587        2.83983176        8.32487715
  |  110: Species Ti            3.78499966        2.83860507        5.94607132
  |  111: Species Ti            5.67749421        0.94625002        1.18915409
  |  112: Species Ti            3.78499973        0.94625005        3.56742525
  |  113: Species O             5.67756538        2.83872255        0.78115824
  |  114: Species O             3.78500001        2.83833109        7.91598294
  |  115: Species O             5.67715389        0.94624955        8.73267641
  |  116: Species O             3.78499979        0.94625012        1.59708228
  |  117: Species O             3.78499960        0.94625004        5.53776814
  |  118: Species O             5.67754488        0.94624965        3.15945683
  |  119: Species O             3.78499949        2.83866912        3.97541785
  |  120: Species O             5.67740167        2.83897310        6.35405106
  |  121: Species Ti            5.69408396        2.83990472       17.84445193
  |  122: Species Ti            3.78499962        2.82410569       15.50619588
  |  123: Species Ti            5.67447687        0.94624961       10.70123204
  |  124: Species Ti            3.78500053        0.94625149       13.08777218
  |  125: Species O             5.67119538        2.83940406       10.29485300
  |  126: Species O             3.78499972        2.83724651       17.44415257
  |  127: Species O             5.68549656        0.94624930       18.25419961
  |  128: Species O             3.78500008        0.94624883       11.11585694
  |  129: Species O             3.78499991        0.94625028       15.06195278
  |  130: Species O             5.67562014        0.94624999       12.67343166
  |  131: Species O             3.78500062        2.83722672       13.50407270
  |  132: Species O             5.68891866        2.81671433       15.88092384
  |  133: Species Ti            5.67782290        2.83873041       27.35073229
  |  134: Species Ti            3.78500035        2.83928871       24.97313834
  |  135: Species Ti            5.67689341        0.94624831       20.21941510
  |  136: Species Ti            3.78500006        0.94625074       22.59677045
  |  137: Species O             5.67909829        2.84007178       19.81487859
  |  138: Species O             3.78500003        2.83879587       26.94293153
  |  139: Species O             5.67753277        0.94625005       27.75865474
  |  140: Species O             3.78500000        0.94624883       20.62576992
  |  141: Species O             3.78500011        0.94625028       24.56585383
  |  142: Species O             5.67736575        0.94624997       22.19031410
  |  143: Species O             3.78499995        2.83934162       23.00260088
  |  144: Species O             5.67765855        2.83880518       25.38039439
  |  145: Species Ti            5.67739823        6.62374977        8.32413603
  |  146: Species Ti            3.78499971        6.62374999        5.94559874
  |  147: Species Ti            5.67747851        4.73127219        1.18916730
  |  148: Species Ti            3.78499987        4.73106513        3.56751520
  |  149: Species O             5.67755830        6.62375017        0.78123635
  |  150: Species O             3.78500003        6.62374935        7.91566875
  |  151: Species O             5.67517989        4.73179173        8.73320922
  |  152: Species O             3.78500011        4.73119265        1.59709820
  |  153: Species O             3.78499974        4.73115065        5.53775048
  |  154: Species O             5.67753662        4.73122778        3.15949317
  |  155: Species O             3.78500026        6.62375000        3.97533097
  |  156: Species O             5.67738136        6.62375018        6.35381132
  |  157: Species Ti            5.70613699        6.62374912       17.82468281
  |  158: Species Pd            3.78499992        6.62375032       15.45910463
  |  159: Species Ti            5.67669744        4.73251508       10.70481092
  |  160: Species Ti            3.78500049        4.70260941       13.09352686
  |  161: Species O             5.67686543        6.62374944       10.29588845
  |  162: Species O             3.78499976        6.62374927       17.43356958
  |  163: Species O             5.69126825        4.72793425       18.24354297
  |  164: Species O             3.78500045        4.74062119       11.12450803
  |  165: Species O             3.78499980        4.68486626       15.07629045
  |  166: Species O             5.68081679        4.71747716       12.67467336
  |  167: Species O             3.78500094        6.62375036       13.48463425
  |  168: Species O             5.72388019        6.62375011       15.84193003
  |  169: Species Ti            5.67768514        6.62375014       27.35070187
  |  170: Species Ti            3.78499898        6.62375028       24.97263653
  |  171: Species Ti            5.67623442        4.73205275       20.21342322
  |  172: Species Ti            3.78500006        4.73135255       22.59407942
  |  173: Species O             5.66813417        6.62374941       19.79372184
  |  174: Species O             3.78500005        6.62374995       26.94288701
  |  175: Species O             5.67752230        4.73121320       27.75872371
  |  176: Species O             3.78499994        4.73188893       20.62234471
  |  177: Species O             3.78500048        4.73136880       24.56442284
  |  178: Species O             5.67695760        4.73356904       22.18500679
  |  179: Species O             3.78500035        6.62375042       23.00254859
  |  180: Species O             5.67759911        6.62375053       25.38048454
  |  181: Species Ti            5.67722591       10.40766748        8.32487714
  |  182: Species Ti            3.78500098       10.40889500        5.94607141
  |  183: Species Ti            5.67747844        8.51622808        1.18916733
  |  184: Species Ti            3.78499983        8.51643494        3.56751531
  |  185: Species O             5.67756548       10.40877760        0.78115817
  |  186: Species O             3.78499999       10.40916838        7.91598295
  |  187: Species O             5.67517964        8.51570733        8.73320948
  |  188: Species O             3.78500018        8.51630748        1.59709830
  |  189: Species O             3.78499942        8.51634928        5.53775062
  |  190: Species O             5.67753662        8.51627274        3.15949326
  |  191: Species O             3.78499909       10.40883093        3.97541794
  |  192: Species O             5.67740185       10.40852661        6.35405096
  |  193: Species Ti            5.69408403       10.40759354       17.84445205
  |  194: Species Ti            3.78499958       10.42339504       15.50619609
  |  195: Species Ti            5.67669740        8.51498242       10.70481118
  |  196: Species Ti            3.78500041        8.54489379       13.09352693
  |  197: Species O             5.67119619       10.40809512       10.29485279
  |  198: Species O             3.78499968       10.41025156       17.44415239
  |  199: Species O             5.69126827        8.51956417       18.24354305
  |  200: Species O             3.78500007        8.50687873       11.12450780
  |  201: Species O             3.78499998        8.56263459       15.07629006
  |  202: Species O             5.68081673        8.53002268       12.67467350
  |  203: Species O             3.78499989       10.41027426       13.50407243
  |  204: Species O             5.68891868       10.43078593       15.88092395
  |  205: Species Ti            5.67782297       10.40876973       27.35073217
  |  206: Species Ti            3.78500036       10.40821175       24.97313853
  |  207: Species Ti            5.67623445        8.51544416       20.21342337
  |  208: Species Ti            3.78500011        8.51614938       22.59407947
  |  209: Species O             5.67909818       10.40742695       19.81487875
  |  210: Species O             3.78500006       10.40870418       26.94293130
  |  211: Species O             5.67752224        8.51628712       27.75872373
  |  212: Species O             3.78499995        8.51560836       20.62234490
  |  213: Species O             3.78500046        8.51613180       24.56442301
  |  214: Species O             5.67695765        8.51393171       22.18500690
  |  215: Species O             3.78499993       10.40815893       23.00260089
  |  216: Species O             5.67765860       10.40869603       25.38039432
  |  217: Species Ti            9.46250002        2.83899183        8.32242969
  |  218: Species Ti            7.56951057        2.83865903        5.94609901
  |  219: Species Ti            9.46250000        0.94625007        1.18916754
  |  220: Species Ti            7.57001185        0.94625007        3.56753295
  |  221: Species O             9.46250024        2.83872195        0.78114560
  |  222: Species O             7.56935756        2.83889915        7.91650205
  |  223: Species O             9.46249995        0.94625006        8.72890039
  |  224: Species O             7.57002819        0.94625021        1.59718905
  |  225: Species O             7.56989749        0.94624991        5.53799809
  |  226: Species O             9.46250005        0.94625002        3.15954344
  |  227: Species O             7.56993864        2.83865092        3.97564066
  |  228: Species O             9.46250020        2.83853364        6.35325145
  |  229: Species Ti            9.46249955        2.83925459       17.84463397
  |  230: Species Ti            7.57417688        2.83457198       15.45911892
  |  231: Species Ti            9.46250024        0.94625019       10.69891921
  |  232: Species Ti            7.56949605        0.94625023       13.07358366
  |  233: Species O             9.46250010        2.83847580       10.29210178
  |  234: Species O             7.57592886        2.84052421       17.43535766
  |  235: Species O             9.46249965        0.94624957       18.25286883
  |  236: Species O             7.56752667        0.94625019       11.10576061
  |  237: Species O             7.58234184        0.94625007       15.04440710
  |  238: Species O             9.46250013        0.94624969       12.66534796
  |  239: Species O             7.56822899        2.83282012       13.48286082
  |  240: Species O             9.46249959        2.82640362       15.87382802
  |  241: Species Ti            9.46250011        2.83873832       27.35068313
  |  242: Species Ti            7.57009087        2.83924019       24.97213623
  |  243: Species Ti            9.46250003        0.94624911       20.21931592
  |  244: Species Ti            7.56975808        0.94625162       22.59578694
  |  245: Species O             9.46249984        2.84122363       19.81247353
  |  246: Species O             7.57009916        2.83881170       26.94257626
  |  247: Species O             9.46250004        0.94625013       27.75867341
  |  248: Species O             7.57027395        0.94624946       20.62613276
  |  249: Species O             7.57021665        0.94625089       24.56498353
  |  250: Species O             9.46250001        0.94625154       22.18931612
  |  251: Species O             7.56985052        2.83939312       23.00171490
  |  252: Species O             9.46249995        2.83885345       25.38023626
  |  253: Species Ti            9.46249993        6.62375005        8.32144612
  |  254: Species Ti            7.56946173        6.62375003        5.94509606
  |  255: Species Ti            9.46249998        4.73125568        1.18918090
  |  256: Species Ti            7.57001958        4.73092691        3.56748439
  |  257: Species O             9.46249972        6.62375017        0.78125200
  |  258: Species O             7.56940872        6.62374981        7.91561533
  |  259: Species O             9.46250008        4.73138411        8.72790251
  |  260: Species O             7.57002754        4.73118457        1.59717623
  |  261: Species O             7.56994506        4.73109148        5.53783969
  |  262: Species O             9.46250007        4.73121730        3.15956220
  |  263: Species O             7.56995423        6.62375000        3.97528490
  |  264: Species O             9.46250013        6.62375015        6.35238041
  |  265: Species Ti            9.46249977        6.62374962       17.83043644
  |  266: Species Ti            7.58464206        6.62375017       15.41203470
  |  267: Species Ti            9.46250023        4.73185656       10.69881940
  |  268: Species Ti            7.56884564        4.71466395       13.07376554
  |  269: Species O             9.46250017        6.62374996       10.29246442
  |  270: Species O             7.57152030        6.62374929       17.41413747
  |  271: Species O             9.46249969        4.73313165       18.24478457
  |  272: Species O             7.56867804        4.72964983       11.10335557
  |  273: Species O             7.59203427        4.71982956       15.03731064
  |  274: Species O             9.46250011        4.72325521       12.66401660
  |  275: Species O             7.57150181        6.62375003       13.47406197
  |  276: Species O             9.46249965        6.62375007       15.85627847
  |  277: Species Ti            9.46249989        6.62375012       27.35079157
  |  278: Species Ti            7.57014548        6.62375088       24.97216358
  |  279: Species Ti            9.46249999        4.73427495       20.21700231
  |  280: Species Ti            7.56891794        4.73152539       22.59333910
  |  281: Species O             9.46250011        6.62374949       19.80237597
  |  282: Species O             7.57008102        6.62375021       26.94279909
  |  283: Species O             9.46250017        4.73120499       27.75876039
  |  284: Species O             7.56934602        4.73755337       20.62338147
  |  285: Species O             7.56977671        4.73134892       24.56418341
  |  286: Species O             9.46250004        4.73159757       22.18554075
  |  287: Species O             7.57041714        6.62375090       23.00223372
  |  288: Species O             9.46250023        6.62375101       25.38046663
  |  289: Species Ti            9.46250025       10.40850829        8.32242986
[...]
  | writing   projected DOS (raw data) for species O to file atom_proj_dos_O0263_raw.dat.
  | writing   projected DOS (shifted by the chemical potential) for species O to file atom_proj_dos_O0264.dat.
  | writing   projected DOS (raw data) for species O to file atom_proj_dos_O0264_raw.dat.
  | writing   projected DOS (shifted by the chemical potential) for species Ti to file atom_proj_dos_Ti0265.dat.
  | writing   projected DOS (raw data) for species Ti to file atom_proj_dos_Ti0265_raw.dat.
  | writing   projected DOS (shifted by the chemical potential) for species Ti to file atom_proj_dos_Ti0266.dat.
  | writing   projected DOS (raw data) for species Ti to file atom_proj_dos_Ti0266_raw.dat.
  | writing   projected DOS (shifted by the chemical potential) for species Ti to file atom_proj_dos_Ti0267.dat.
  | writing   projected DOS (raw data) for species Ti to file atom_proj_dos_Ti0267_raw.dat.
  | writing   projected DOS (shifted by the chemical potential) for species Ti to file atom_proj_dos_Ti0268.dat.
  | writing   projected DOS (raw data) for species Ti to file atom_proj_dos_Ti0268_raw.dat.
  | writing   projected DOS (shifted by the chemical potential) for species O to file atom_proj_dos_O0269.dat.
  | writing   projected DOS (raw data) for species O to file atom_proj_dos_O0269_raw.dat.
  | writing   projected DOS (shifted by the chemical potential) for species O to file atom_proj_dos_O0270.dat.
  | writing   projected DOS (raw data) for species O to file atom_proj_dos_O0270_raw.dat.
  | writing   projected DOS (shifted by the chemical potential) for species O to file atom_proj_dos_O0271.dat.
  | writing   projected DOS (raw data) for species O to file atom_proj_dos_O0271_raw.dat.
  | writing   projected DOS (shifted by the chemical potential) for species O to file atom_proj_dos_O0272.dat.
  | writing   projected DOS (raw data) for species O to file atom_proj_dos_O0272_raw.dat.
  | writing   projected DOS (shifted by the chemical potential) for species O to file atom_proj_dos_O0273.dat.
  | writing   projected DOS (raw data) for species O to file atom_proj_dos_O0273_raw.dat.
  | writing   projected DOS (shifted by the chemical potential) for species O to file atom_proj_dos_O0274.dat.
  | writing   projected DOS (raw data) for species O to file atom_proj_dos_O0274_raw.dat.
  | writing   projected DOS (shifted by the chemical potential) for species O to file atom_proj_dos_O0275.dat.
  | writing   projected DOS (raw data) for species O to file atom_proj_dos_O0275_raw.dat.
  | writing   projected DOS (shifted by the chemical potential) for species O to file atom_proj_dos_O0276.dat.
  | writing   projected DOS (raw data) for species O to file atom_proj_dos_O0276_raw.dat.
  | writing   projected DOS (shifted by the chemical potential) for species Ti to file atom_proj_dos_Ti0277.dat.
  | writing   projected DOS (raw data) for species Ti to file atom_proj_dos_Ti0277_raw.dat.
  | writing   projected DOS (shifted by the chemical potential) for species Ti to file atom_proj_dos_Ti0278.dat.
  | writing   projected DOS (raw data) for species Ti to file atom_proj_dos_Ti0278_raw.dat.
  | writing   projected DOS (shifted by the chemical potential) for species Ti to file atom_proj_dos_Ti0279.dat.
  | writing   projected DOS (raw data) for species Ti to file atom_proj_dos_Ti0279_raw.dat.
  | writing   projected DOS (shifted by the chemical potential) for species Ti to file atom_proj_dos_Ti0280.dat.
  | writing   projected DOS (raw data) for species Ti to file atom_proj_dos_Ti0280_raw.dat.
  | writing   projected DOS (shifted by the chemical potential) for species O to file atom_proj_dos_O0281.dat.
  | writing   projected DOS (raw data) for species O to file atom_proj_dos_O0281_raw.dat.
  | writing   projected DOS (shifted by the chemical potential) for species O to file atom_proj_dos_O0282.dat.
  | writing   projected DOS (raw data) for species O to file atom_proj_dos_O0282_raw.dat.
  | writing   projected DOS (shifted by the chemical potential) for species O to file atom_proj_dos_O0283.dat.
  | writing   projected DOS (raw data) for species O to file atom_proj_dos_O0283_raw.dat.
  | writing   projected DOS (shifted by the chemical potential) for species O to file atom_proj_dos_O0284.dat.
  | writing   projected DOS (raw data) for species O to file atom_proj_dos_O0284_raw.dat.
  | writing   projected DOS (shifted by the chemical potential) for species O to file atom_proj_dos_O0285.dat.
  | writing   projected DOS (raw data) for species O to file atom_proj_dos_O0285_raw.dat.
  | writing   projected DOS (shifted by the chemical potential) for species O to file atom_proj_dos_O0286.dat.
  | writing   projected DOS (raw data) for species O to file atom_proj_dos_O0286_raw.dat.
  | writing   projected DOS (shifted by the chemical potential) for species O to file atom_proj_dos_O0287.dat.
  | writing   projected DOS (raw data) for species O to file atom_proj_dos_O0287_raw.dat.
  | writing   projected DOS (shifted by the chemical potential) for species O to file atom_proj_dos_O0288.dat.
  | writing   projected DOS (raw data) for species O to file atom_proj_dos_O0288_raw.dat.
  | writing   projected DOS (shifted by the chemical potential) for species Ti to file atom_proj_dos_Ti0289.dat.
  | writing   projected DOS (raw data) for species Ti to file atom_proj_dos_Ti0289_raw.dat.
  | writing   projected DOS (shifted by the chemical potential) for species Ti to file atom_proj_dos_Ti0290.dat.
  | writing   projected DOS (raw data) for species Ti to file atom_proj_dos_Ti0290_raw.dat.
  | writing   projected DOS (shifted by the chemical potential) for species Ti to file atom_proj_dos_Ti0291.dat.
  | writing   projected DOS (raw data) for species Ti to file atom_proj_dos_Ti0291_raw.dat.
  | writing   projected DOS (shifted by the chemical potential) for species Ti to file atom_proj_dos_Ti0292.dat.
  | writing   projected DOS (raw data) for species Ti to file atom_proj_dos_Ti0292_raw.dat.
  | writing   projected DOS (shifted by the chemical potential) for species O to file atom_proj_dos_O0293.dat.
  | writing   projected DOS (raw data) for species O to file atom_proj_dos_O0293_raw.dat.
  | writing   projected DOS (shifted by the chemical potential) for species O to file atom_proj_dos_O0294.dat.
  | writing   projected DOS (raw data) for species O to file atom_proj_dos_O0294_raw.dat.
  | writing   projected DOS (shifted by the chemical potential) for species O to file atom_proj_dos_O0295.dat.
  | writing   projected DOS (raw data) for species O to file atom_proj_dos_O0295_raw.dat.
  | writing   projected DOS (shifted by the chemical potential) for species O to file atom_proj_dos_O0296.dat.
  | writing   projected DOS (raw data) for species O to file atom_proj_dos_O0296_raw.dat.
  | writing   projected DOS (shifted by the chemical potential) for species O to file atom_proj_dos_O0297.dat.
  | writing   projected DOS (raw data) for species O to file atom_proj_dos_O0297_raw.dat.
  | writing   projected DOS (shifted by the chemical potential) for species O to file atom_proj_dos_O0298.dat.
  | writing   projected DOS (raw data) for species O to file atom_proj_dos_O0298_raw.dat.
  | writing   projected DOS (shifted by the chemical potential) for species O to file atom_proj_dos_O0299.dat.
  | writing   projected DOS (raw data) for species O to file atom_proj_dos_O0299_raw.dat.
  | writing   projected DOS (shifted by the chemical potential) for species O to file atom_proj_dos_O0300.dat.
  | writing   projected DOS (raw data) for species O to file atom_proj_dos_O0300_raw.dat.
  | writing   projected DOS (shifted by the chemical potential) for species Ti to file atom_proj_dos_Ti0301.dat.
  | writing   projected DOS (raw data) for species Ti to file atom_proj_dos_Ti0301_raw.dat.
  | writing   projected DOS (shifted by the chemical potential) for species Ti to file atom_proj_dos_Ti0302.dat.
  | writing   projected DOS (raw data) for species Ti to file atom_proj_dos_Ti0302_raw.dat.
  | writing   projected DOS (shifted by the chemical potential) for species Ti to file atom_proj_dos_Ti0303.dat.
  | writing   projected DOS (raw data) for species Ti to file atom_proj_dos_Ti0303_raw.dat.
  | writing   projected DOS (shifted by the chemical potential) for species Ti to file atom_proj_dos_Ti0304.dat.
  | writing   projected DOS (raw data) for species Ti to file atom_proj_dos_Ti0304_raw.dat.
  | writing   projected DOS (shifted by the chemical potential) for species O to file atom_proj_dos_O0305.dat.
  | writing   projected DOS (raw data) for species O to file atom_proj_dos_O0305_raw.dat.
  | writing   projected DOS (shifted by the chemical potential) for species O to file atom_proj_dos_O0306.dat.
  | writing   projected DOS (raw data) for species O to file atom_proj_dos_O0306_raw.dat.
  | writing   projected DOS (shifted by the chemical potential) for species O to file atom_proj_dos_O0307.dat.
  | writing   projected DOS (raw data) for species O to file atom_proj_dos_O0307_raw.dat.
  | writing   projected DOS (shifted by the chemical potential) for species O to file atom_proj_dos_O0308.dat.
  | writing   projected DOS (raw data) for species O to file atom_proj_dos_O0308_raw.dat.
  | writing   projected DOS (shifted by the chemical potential) for species O to file atom_proj_dos_O0309.dat.
  | writing   projected DOS (raw data) for species O to file atom_proj_dos_O0309_raw.dat.
  | writing   projected DOS (shifted by the chemical potential) for species O to file atom_proj_dos_O0310.dat.
  | writing   projected DOS (raw data) for species O to file atom_proj_dos_O0310_raw.dat.
  | writing   projected DOS (shifted by the chemical potential) for species O to file atom_proj_dos_O0311.dat.
  | writing   projected DOS (raw data) for species O to file atom_proj_dos_O0311_raw.dat.
  | writing   projected DOS (shifted by the chemical potential) for species O to file atom_proj_dos_O0312.dat.
  | writing   projected DOS (raw data) for species O to file atom_proj_dos_O0312_raw.dat.
  | writing   projected DOS (shifted by the chemical potential) for species Ti to file atom_proj_dos_Ti0313.dat.
  | writing   projected DOS (raw data) for species Ti to file atom_proj_dos_Ti0313_raw.dat.
  | writing   projected DOS (shifted by the chemical potential) for species Ti to file atom_proj_dos_Ti0314.dat.
  | writing   projected DOS (raw data) for species Ti to file atom_proj_dos_Ti0314_raw.dat.
  | writing   projected DOS (shifted by the chemical potential) for species Ti to file atom_proj_dos_Ti0315.dat.
  | writing   projected DOS (raw data) for species Ti to file atom_proj_dos_Ti0315_raw.dat.
  | writing   projected DOS (shifted by the chemical potential) for species Ti to file atom_proj_dos_Ti0316.dat.
  | writing   projected DOS (raw data) for species Ti to file atom_proj_dos_Ti0316_raw.dat.
  | writing   projected DOS (shifted by the chemical potential) for species O to file atom_proj_dos_O0317.dat.
  | writing   projected DOS (raw data) for species O to file atom_proj_dos_O0317_raw.dat.
  | writing   projected DOS (shifted by the chemical potential) for species O to file atom_proj_dos_O0318.dat.
  | writing   projected DOS (raw data) for species O to file atom_proj_dos_O0318_raw.dat.
  | writing   projected DOS (shifted by the chemical potential) for species O to file atom_proj_dos_O0319.dat.
  | writing   projected DOS (raw data) for species O to file atom_proj_dos_O0319_raw.dat.
  | writing   projected DOS (shifted by the chemical potential) for species O to file atom_proj_dos_O0320.dat.
  | writing   projected DOS (raw data) for species O to file atom_proj_dos_O0320_raw.dat.
  | writing   projected DOS (shifted by the chemical potential) for species O to file atom_proj_dos_O0321.dat.
  | writing   projected DOS (raw data) for species O to file atom_proj_dos_O0321_raw.dat.
  | writing   projected DOS (shifted by the chemical potential) for species O to file atom_proj_dos_O0322.dat.
  | writing   projected DOS (raw data) for species O to file atom_proj_dos_O0322_raw.dat.
  | writing   projected DOS (shifted by the chemical potential) for species O to file atom_proj_dos_O0323.dat.
  | writing   projected DOS (raw data) for species O to file atom_proj_dos_O0323_raw.dat.
  | writing   projected DOS (shifted by the chemical potential) for species O to file atom_proj_dos_O0324.dat.
  | writing   projected DOS (raw data) for species O to file atom_proj_dos_O0324_raw.dat.
  Mulliken analysis                                       :  max(cpu_time)    wall_clock(cpu1)
  | Time for Mulliken analysis                            :          7.642               8.399
  | Total time for Mulliken analysis                      :          7.642               8.399
------------------------------------------------------------

------------------------------------------------------------------------------
  Final output of selected total energy values:

  The following output summarizes some interesting total energy values
  at the end of a run (AFTER all relaxation, molecular dynamics, etc.).

  | Total energy of the DFT / Hartree-Fock s.c.f. calculation      :       -3080827.223491725 eV
  | Final zero-broadening corrected energy (caution - metals only) :       -3080827.223491725 eV
  | For reference only, the value of 1 Hartree used in FHI-aims is :             27.211384500 eV
  | For reference only, the overall average (free atom contribution
  | + realspace contribution) of the electrostatic potential after
  | s.c.f. convergence is                                          :            -15.874083397 eV

  Before relying on these values, please be sure to understand exactly which
  total energy value is referred to by a given number. Different objects may
  all carry the same name 'total energy'. Definitions:

  Total energy of the DFT / Hartree-Fock s.c.f. calculation:
  | Note that this energy does not include ANY quantities calculated after the
  | s.c.f. cycle, in particular not ANY RPA, MP2, etc. many-body perturbation terms.

  Final zero-broadening corrected energy:
  | For metallic systems only, a broadening of the occupation numbers at the Fermi
  | level can be extrapolated back to zero broadening by an electron-gas inspired
  | formula. For all systems that are not real metals, this value can be
  | meaningless and should be avoided.

------------------------------------------------------------------------------
  Methods described in the following list of references were used in this FHI-aims run.
  If you publish the results, please make sure to cite these reference if they apply.
  FHI-aims is an academic code, and for our developers (often, Ph.D. students
  and postdocs), scientific credit in the community is essential.
  Thank you for helping us!

  For any use of FHI-aims, please cite:

    Volker Blum, Ralf Gehrke, Felix Hanke, Paula Havu, Ville Havu,
    Xinguo Ren, Karsten Reuter, and Matthias Scheffler
    'Ab initio molecular simulations with numeric atom-centered orbitals'
    Computer Physics Communications 180, 2175-2196 (2009)
    http://doi.org/10.1016/j.cpc.2009.06.022


  The provided symmetry information was generated with SPGlib:

    Atsushi Togo, Yusuke Seto, Dimitar Pashov
    SPGlib 1.7.3 obtained from http://spglib.sourceforge.net
    Copyright (C) 2008 Atsushi Togo


 DFT+U infrastructure was used in your run
 please cite:

 Matthias Kick, Karsten Reuter and Harald Oberhofer,
 Intricacies Of DFT+U, not only in a Numeric Atom Centered Orbital Framework

 Journal of Chemical Theory and Computation
 https://


  The ELSI infrastructure was used in your run to solve the Kohn-Sham electronic structure.
  Please check out http://elsi-interchange.org to learn more.
  If scalability is important for your project, please acknowledge ELSI by citing:

    V. W-z. Yu, F. Corsetti, A. Garcia, W. P. Huhn, M. Jacquelin, W. Jia,
    B. Lange, L. Lin, J. Lu, W. Mi, A. Seifitokaldani, A. Vazquez-Mayagoitia,
    C. Yang, H. Yang, and V. Blum
    'ELSI: A unified software interface for Kohn-Sham electronic structure solvers'
    Computer Physics Communications 222, 267-285 (2018).
    http://doi.org/10.1016/j.cpc.2017.09.007


  For the real-space grid partitioning and parallelization used in this calculation, please cite:

    Ville Havu, Volker Blum, Paula Havu, and Matthias Scheffler,
    'Efficient O(N) integration for all-electron electronic structure calculation'
    'using numerically tabulated basis functions'
    Journal of Computational Physics 228, 8367-8379 (2009).
    http://doi.org/10.1016/j.jcp.2009.08.008

  Of course, there are many other important community references, e.g., those cited in the
  above references. Our list is limited to references that describe implementations in the
  FHI-aims code. The reason is purely practical (length of this list) - please credit others as well.

 * A warning was issued further up regarding the accuracy of onsite integrals.
   An integral with a negative eigenvalue was among the flagged integrals.
   In most standard situations, this warning is probably harmless.
   If needed, this can be verified by adjusting the radial_multiplier flag.

------------------------------------------------------------
          Leaving FHI-aims.
          Date     :  20240717, Time     :  012716.318

          Computational steps:
          | Number of self-consistency cycles          :           30
          | Number of SCF (re)initializations          :            1

          Detailed time accounting                     :  max(cpu_time)    wall_clock(cpu1)
          | Total time                                  :     1337.680 s        1341.719 s
          | Preparation time                            :        0.959 s           0.958 s
          | Boundary condition initalization            :        0.636 s           0.637 s
          | Grid partitioning                           :        0.924 s           0.926 s
          | Preloading free-atom quantities on grid     :        1.328 s           1.335 s
          | Free-atom superposition energy              :        0.431 s           0.432 s
          | Total time for integrations                 :       83.291 s          83.486 s
          | Total time for solution of K.-S. equations  :      802.006 s         796.508 s
          | Total time for density & force components   :      202.485 s         202.972 s
          | Total time for mixing & preconditioning     :       75.162 s          75.193 s
          | Total time for Hartree multipole update     :        0.833 s           0.849 s
          | Total time for Hartree multipole sum        :       27.551 s          27.616 s
          | Total time for total energy evaluation      :        0.212 s           0.108 s
          | Total time NSC force correction             :        5.084 s           5.419 s
          | Total time for scaled ZORA corrections      :        0.000 s           0.000 s
          | Total time for band structures, DOS         :        0.024 s           0.015 s
          | Total time for Mulliken analysis            :        8.380 s           8.399 s

          Partial memory accounting:
          | Residual value for overall tracked memory usage across tasks:     0.000000 MB (should be 0.000000 MB)
          | Peak values for overall tracked memory usage:
          |   Minimum:      530.355 MB (on task   9 after allocating temp_ham_ovlp)
          |   Maximum:      533.449 MB (on task   0 after allocating temp_ham_ovlp)
          |   Average:      532.513 MB
          | Largest tracked array allocation:
          |   Minimum:      104.189 MB (overlap_matrix on task   0)
          |   Maximum:      104.189 MB (overlap_matrix on task   0)
          |   Average:      104.189 MB
          Note:  These values currently only include a subset of arrays which are explicitly tracked.
          The "true" memory usage will be greater.

          Have a nice day.
------------------------------------------------------------
